
*************** JDFTx 1.7.0  ***************

Start date and time: Mon Sep  1 20:15:41 2025
Executable jdftx with command-line: -i /opt/airflow/output/gc_dft/mp-755394-111-3_0.0.in
Running on hosts (process indices):  41a82e7e5a55 (0)
Divided in process groups (process indices):  0 (0)
Resource initialization completed at t[s]:      0.00
Run totals: 1 processes, 8 threads, 0 GPUs


Input parsed successfully to the following command list (including defaults):

basis kpoint-dependent
coords-type Cartesian
core-overlap-check vector
coulomb-interaction Periodic
davidson-band-ratio 1.1
dump End State
dump-name $VAR
elec-cutoff 10
elec-eigen-algo Davidson
elec-ex-corr gga-PBE
elec-initial-charge 0.000000
elec-smearing Fermi 0.00734
electronic-minimize  \
	dirUpdateScheme      FletcherReeves \
	linminMethod         DirUpdateRecommended \
	nIterations          30 \
	history              15 \
	knormThreshold       0 \
	maxThreshold         no \
	energyDiffThreshold  1e-05 \
	nEnergyDiff          2 \
	convergeAll          no \
	alphaTstart          1 \
	alphaTmin            1e-10 \
	updateTestStepSize   yes \
	alphaTreduceFactor   0.1 \
	alphaTincreaseFactor 3 \
	nAlphaAdjustMax      3 \
	wolfeEnergy          0.0001 \
	wolfeGradient        0.9 \
	abortOnFailedStep    no \
	fdTest               no
exchange-regularization WignerSeitzTruncated
fluid LinearPCM 298.000000 1.013250
fluid-anion F- 1 MeanFieldLJ \
	epsBulk 1 \
	pMol 0 \
	epsInf 1 \
	Pvap 0 \
	sigmaBulk 0 \
	Rvdw 2.24877 \
	Res 0 \
	tauNuc 343133
fluid-cation Na+ 1 MeanFieldLJ \
	epsBulk 1 \
	pMol 0 \
	epsInf 1 \
	Pvap 0 \
	sigmaBulk 0 \
	Rvdw 2.19208 \
	Res 0 \
	tauNuc 343133
fluid-ex-corr lda-TF lda-PZ
fluid-gummel-loop 10 1.000000e-05
fluid-minimize  \
	dirUpdateScheme      PolakRibiere \
	linminMethod         DirUpdateRecommended \
	nIterations          400 \
	history              15 \
	knormThreshold       1e-11 \
	maxThreshold         no \
	energyDiffThreshold  0 \
	nEnergyDiff          2 \
	convergeAll          no \
	alphaTstart          1 \
	alphaTmin            1e-10 \
	updateTestStepSize   yes \
	alphaTreduceFactor   0.1 \
	alphaTincreaseFactor 3 \
	nAlphaAdjustMax      6 \
	wolfeEnergy          0.0001 \
	wolfeGradient        0.9 \
	abortOnFailedStep    no \
	fdTest               no
fluid-solvent H2O 55.338 ScalarEOS \
	epsBulk 78.4 \
	pMol 0.92466 \
	epsInf 1.77 \
	Pvap 1.06736e-10 \
	sigmaBulk 4.62e-05 \
	Rvdw 2.61727 \
	Res 1.42 \
	tauNuc 343133 \
	poleEl 15 7 1
forces-output-coords Positions
initial-state $VAR
ion V   0.000297000000000   0.000206000000000  40.527760999999998 1
ion V  -2.867357999999999   4.115779999999999  33.076448999999997 1
ion V   0.000297000000000   0.000206000000000  51.335754999999992 1
ion V  -2.867357999999999   4.115779999999999  43.884442999999983 1
ion V   2.087893999999999   6.178677999999999  29.394374999999997 1
ion V   2.923822000000000   2.052782000000000  35.129578999999993 1
ion V   0.000297000000000   0.000206000000000  62.143747999999995 1
ion V  -2.867357999999999   4.115779999999999  54.692435999999994 1
ion V   2.087893999999999   6.178677999999999  40.202368999999983 1
ion V   2.923822000000000   2.052782000000000  45.937573000000000 1
ion O  -0.406594999999999   3.963560999999999  29.978448999999998 1
ion O  -3.080845999999999   7.974219999999999  22.816246999999997 1
ion O   8.092021000000001   0.256846000000000  30.899395999999992 1
ion O   5.417259000000000   4.267018999999999  23.737565000000000 1
ion O  -0.406594999999999   3.963560999999999  40.786441999999994 1
ion O   4.781548000000001   4.427946999999999  29.221173999999994 1
ion O   2.336115000000000   7.929795999999998  21.273168999999999 1
ion O  -3.080845999999999   7.974219999999999  33.624240999999998 1
ion O   8.092021000000001   0.256846000000000  41.707389999999990 1
ion O   2.674004000000000   0.301442000000000  43.251495999999996 1
ion O   0.229520000000000   3.803208999999999  35.304034999999999 1
ion O   5.417259000000000   4.267018999999999  34.545558999999997 1
ion O  -0.406594999999999   3.963560999999999  51.594435999999995 1
ion O   4.781548000000001   4.427946999999999  40.029167999999999 1
ion O   2.336115000000000   7.929795999999998  32.081162999999989 1
ion O  -3.080845999999999   7.974219999999999  44.432234000000001 1
ion O   8.092021000000001   0.256846000000000  52.515383999999983 1
ion O   2.674004000000000   0.301442000000000  54.059489999999990 1
ion O   0.229520000000000   3.803208999999999  46.112028999999993 1
ion O   5.417259000000000   4.267018999999999  45.353552999999991 1
ion-species GBRV/$ID_pbe.uspp
ion-width Ecut
ionic-minimize  \
	dirUpdateScheme      L-BFGS \
	linminMethod         DirUpdateRecommended \
	nIterations          0 \
	history              15 \
	knormThreshold       0.0001 \
	maxThreshold         no \
	energyDiffThreshold  1e-06 \
	nEnergyDiff          2 \
	convergeAll          no \
	alphaTstart          1 \
	alphaTmin            1e-10 \
	updateTestStepSize   yes \
	alphaTreduceFactor   0.1 \
	alphaTincreaseFactor 3 \
	nAlphaAdjustMax      3 \
	wolfeEnergy          0.0001 \
	wolfeGradient        0.9 \
	abortOnFailedStep    no \
	fdTest               no
kpoint   0.500000000000   0.500000000000   0.500000000000  1.00000000000000
kpoint-folding 1 1 1 
latt-move-scale 1 1 1
latt-scale 1 1 1 
lattice  \
	  10.749050000000000   -5.737742000000000    0.000000000000000  \
	   0.000000000000000    8.231180999999999    0.000000000000000  \
	 -12.434680000000000  -14.908436999999999   97.271944000000005 
lattice-minimize  \
	dirUpdateScheme      L-BFGS \
	linminMethod         DirUpdateRecommended \
	nIterations          0 \
	history              15 \
	knormThreshold       0 \
	maxThreshold         no \
	energyDiffThreshold  1e-06 \
	nEnergyDiff          2 \
	convergeAll          no \
	alphaTstart          1 \
	alphaTmin            1e-10 \
	updateTestStepSize   yes \
	alphaTreduceFactor   0.1 \
	alphaTincreaseFactor 3 \
	nAlphaAdjustMax      3 \
	wolfeEnergy          0.0001 \
	wolfeGradient        0.9 \
	abortOnFailedStep    no \
	fdTest               no
lcao-params 15 5e-05 0.00734
pcm-variant CANDLE
perturb-minimize  \
	nIterations            0 \
	algorithm              MINRES \
	residualTol            0.0001 \
	residualDiffThreshold  0.0001 \
	CGBypass               no \
	recomputeResidual      no
spintype no-spin
subspace-rotation-factor 1 yes
symmetries automatic
symmetry-threshold 0.0001



---------- Setting up symmetries ----------

Non-trivial transmission matrix:
[   1   0   3  ]
[   0   1   3  ]
[   0   0   1  ]
with reduced lattice vectors:
[     10.749050     -5.737742     15.033924  ]
[      0.000000      8.231181     24.693543  ]
[    -12.434680    -14.908437     15.242593  ]

Found 2 point-group symmetries of the bravais lattice
Found 1 space-group symmetries with basis
Applied RMS atom displacement 0 bohrs to make symmetries exact.

---------- Initializing the Grid ----------
R = 
[      10.7491     -5.73774            0  ]
[            0      8.23118            0  ]
[     -12.4347     -14.9084      97.2719  ]
unit cell volume = 8606.37
G =
[   0.584534   0.407463         -0  ]
[         -0   0.763339          0  ]
[  0.0747234   0.169081   0.064594  ]
Minimum fftbox size, Smin = [  48  52  280  ]
Chosen fftbox size, S = [  48  54  280  ]

---------- Exchange Correlation functional ----------
Initalized PBE GGA exchange.
Initalized PBE GGA correlation.

---------- Setting up pseudopotentials ----------
Width of ionic core gaussian charges (only for fluid interactions / plotting) set to 0.561985

Reading pseudopotential file '/opt/jdftx-master/build/pseudopotentials/GBRV/v_pbe.uspp':
  Title: V.  Created by USPP 7.3.6 on 31-3-15
  Reference state energy: -72.228583.  13 valence electrons in orbitals:
    |300>  occupation: 2  eigenvalue: -2.581040
    |310>  occupation: 6  eigenvalue: -1.618497
    |400>  occupation: 2  eigenvalue: -0.172800
    |320>  occupation: 3  eigenvalue: -0.189802
  lMax: 2  lLocal: 3  QijEcut: 6
  6 projectors sampled on a log grid with 593 points:
    l: 0  eig: -2.581041  rCut: 1.5
    l: 0  eig: -0.172801  rCut: 1.5
    l: 1  eig: -1.618497  rCut: 1.6
    l: 1  eig: 0.150000  rCut: 1.6
    l: 2  eig: -0.189802  rCut: 1.7
    l: 2  eig: 0.150000  rCut: 1.7
  Partial core density with radius 0.8
  Transforming core density to a uniform radial grid of dG=0.02 with 3007 points.
  Transforming local potential to a uniform radial grid of dG=0.02 with 3007 points.
  Transforming nonlocal projectors to a uniform radial grid of dG=0.02 with 307 points.
  Transforming density augmentations to a uniform radial grid of dG=0.02 with 3007 points.
  Transforming atomic orbitals to a uniform radial grid of dG=0.02 with 307 points.
  Core radius for overlap checks: 1.80 bohrs.

Reading pseudopotential file '/opt/jdftx-master/build/pseudopotentials/GBRV/o_pbe.uspp':
  Title: O.  Created by USPP 7.3.6 on 3-2-2014
  Reference state energy: -15.894388.  6 valence electrons in orbitals:
    |200>  occupation: 2  eigenvalue: -0.878823
    |210>  occupation: 4  eigenvalue: -0.332131
  lMax: 2  lLocal: 2  QijEcut: 6
  5 projectors sampled on a log grid with 511 points:
    l: 0  eig: -0.878823  rCut: 1.25
    l: 0  eig: 0.000000  rCut: 1.25
    l: 1  eig: -0.332132  rCut: 1.25
    l: 1  eig: 0.000000  rCut: 1.25
    l: 2  eig: 1.000000  rCut: 1.25
  Partial core density with radius 0.7
  Transforming core density to a uniform radial grid of dG=0.02 with 3007 points.
  Transforming local potential to a uniform radial grid of dG=0.02 with 3007 points.
  Transforming nonlocal projectors to a uniform radial grid of dG=0.02 with 307 points.
  Transforming density augmentations to a uniform radial grid of dG=0.02 with 3007 points.
  Transforming atomic orbitals to a uniform radial grid of dG=0.02 with 307 points.
  Core radius for overlap checks: 1.25 bohrs.

Initialized 2 species with 30 total atoms.

Folded 1 k-points by 1x1x1 to 1 k-points.

---------- Setting up k-points, bands, fillings ----------
No reducable k-points. 
Computing the number of bands and number of electrons
Calculating initial fillings.
nElectrons: 250.000000   nBands: 180   nStates: 1

----- Setting up reduced wavefunction bases (one per k-point) -----
average nbasis = 13004.000 , ideal nbasis = 12999.116

Initializing DFT-D2 calculator for fluid / solvation:
	 V:  C6:  187.33 Eh-a0^6  R0: 2.952 a0
	 O:  C6:   12.14 Eh-a0^6  R0: 2.536 a0

---------- Setting up ewald sum ----------
Optimum gaussian width for ewald sums = 4.560127 bohr.
Real space sum over 1365 unit cells with max indices [  6  7  3  ]
Reciprocal space sum over 15525 terms with max indices [  7  7  34  ]

---------- Allocating electronic variables ----------
Reading eigenvalues from 'eigenvals'.
Initializing wave functions:  reading from 'wfns'
----- createFluidSolver() ----- (Fluid-side solver setup)
   Initializing fluid molecule 'H2O'
     Initializing site 'O'
       Electron density: proportional to exp(-r/0.36935)*erfc((r-0.51523)/0.36823) with norm 6.826
       Charge density: gaussian nuclear width 0.478731 with net site charge 0.826
       Polarizability: cuspless exponential with width 0.32 and norm 3.73
       Hard sphere radius: 2.57003 bohrs
       Positions in reference frame:
         [ +0.000000 +0.000000 +0.000000 ]
     Initializing site 'H'
       Electron density: proportional to exp(-r/0.34641)*erfc((r-0)/0.390882) with norm 0.587
       Charge density: gaussian nuclear width 0.377945 with net site charge -0.413
       Polarizability: cuspless exponential with width 0.39 and norm 3.3
       Positions in reference frame:
         [ +0.000000 -1.441945 +1.122523 ]
         [ +0.000000 +1.441945 +1.122523 ]
     Net charge: 0   dipole magnitude: 0.927204
     Initializing spherical shell mfKernel with radius 2.61727 Bohr
     deltaS corrections:
       site 'O': -7.54299
       site 'H': -6.83917
   Initializing fluid molecule 'Na+'
     Initializing site 'Na'
       Electron density: proportional to exp(-r/0.19682)*erfc((r-0.71491)/0.41314) with norm 8.1383
       Charge density: gaussian nuclear width 0.365347 with net site charge -1
       Hard sphere radius: 1.86327 bohrs
       Positions in reference frame:
         [ +0.000000 +0.000000 +0.000000 ]
     Net charge: -1   dipole magnitude: 0
     Initializing gaussian mfKernel with width: 1.55004 Bohr
     deltaS corrections:
       site 'Na': -22.3555
   Initializing fluid molecule 'F-'
     Initializing site 'F'
       Electron density: proportional to exp(-r/0.38886)*erfc((r-0)/0.438782) with norm 8
       Charge density: gaussian nuclear width 0.374796 with net site charge 1
       Hard sphere radius: 2.39995 bohrs
       Positions in reference frame:
         [ +0.000000 +0.000000 +0.000000 ]
     Net charge: 1   dipole magnitude: 0
     Initializing gaussian mfKernel with width: 1.59012 Bohr
     deltaS corrections:
       site 'F': -9.04335

Correction to mu due to finite nuclear width = -0.0576434
   Cavity determined by nc: 0.00142 and sigma: 0.707107
   Nonlocal vdW cavity from gaussian model electron density with norm = 8 and sigma = 0.993594 bohr
   Charge asymmetry in cavity with sensitivity pCavity = 36.5 e-bohr/Eh
   Electrostatic cavity expanded by eta = 1.46 bohrs
   Weighted density cavitation model constrained by Nbulk: 0.0049383 bohr^-3, Pvap: 3.14029 kPa, Rvdw: 2.61727 bohr and sigmaBulk: 4.62e-05 Eh/bohr^2 at T: 298 K.
   Weighted density dispersion model using vdW pair potentials with single solvent site with sqrtC6eff: 0.77 SI.
Reading fluid state from 'fluidState'


---- Citations for features of the code used in this run ----

   Software package:
      R. Sundararaman, K. Letchworth-Weaver, K.A. Schwarz, D. Gunceler, Y. Ozhabes and T.A. Arias, 'JDFTx: software for joint density-functional theory', SoftwareX 6, 278 (2017)

   gga-PBE exchange-correlation functional:
      J.P. Perdew, K. Burke and M. Ernzerhof, Phys. Rev. Lett. 77, 3865 (1996)

   Pseudopotentials:
      KF Garrity, JW Bennett, KM Rabe and D Vanderbilt, Comput. Mater. Sci. 81, 446 (2014)

   DFT-D2 dispersion correction:
      S. Grimme, J. Comput. Chem. 27, 1787 (2006)

   Charge-asymmetric nonlocally-determined local-electric (CANDLE) solvation model:
      R. Sundararaman and W.A. Goddard III, J. Chem. Phys. 142, 064107 (2015)

   Total energy minimization with Auxiliary Hamiltonian:
      C. Freysoldt, S. Boeck, and J. Neugebauer, Phys. Rev. B 79, 241103(R) (2009)

This list may not be complete. Please suggest additional citations or
report any other bugs at https://github.com/shankar1729/jdftx/issues

Initialization completed successfully at t[s]:     10.21


-------- Electronic minimization -----------
	Linear fluid (dielectric constant: 78.4, screening length: 5.74355 Bohr) occupying 0.528365 of unit cell:	Completed after 19 iterations at t[s]:     23.19
	FillingsUpdate:  mu: -0.186163352  nElectrons: 250.000000
ElecMinimize: Iter:   0  F: -1034.611455733388084  |grad|_K:  1.681e-04  alpha:  1.000e+00
	Linear fluid (dielectric constant: 78.4, screening length: 5.74355 Bohr) occupying 0.541457 of unit cell:	Completed after 29 iterations at t[s]:     49.82
	Linear fluid (dielectric constant: 78.4, screening length: 5.74355 Bohr) occupying 0.528435 of unit cell:	Completed after 28 iterations at t[s]:     60.60
	FillingsUpdate:  mu: -0.186279199  nElectrons: 250.000000
	SubspaceRotationAdjust: set factor to 0.472
ElecMinimize: Iter:   1  F: -1034.611938868267998  |grad|_K:  1.384e-04  alpha:  3.469e-02  linmin:  1.024e-01  t[s]:     76.63
	Linear fluid (dielectric constant: 78.4, screening length: 5.74355 Bohr) occupying 0.528498 of unit cell:	Completed after 15 iterations at t[s]:     86.27
	Linear fluid (dielectric constant: 78.4, screening length: 5.74355 Bohr) occupying 0.528586 of unit cell:	Completed after 16 iterations at t[s]:     96.23
	FillingsUpdate:  mu: -0.188229382  nElectrons: 250.000000
	SubspaceRotationAdjust: set factor to 0.267
ElecMinimize: Iter:   2  F: -1034.612761295204564  |grad|_K:  2.882e-05  alpha:  8.264e-02  linmin:  4.509e-05  t[s]:    112.08
	Linear fluid (dielectric constant: 78.4, screening length: 5.74355 Bohr) occupying 0.528510 of unit cell:	Completed after 12 iterations at t[s]:    122.45
	Linear fluid (dielectric constant: 78.4, screening length: 5.74355 Bohr) occupying 0.528537 of unit cell:	Completed after 10 iterations at t[s]:    131.70
	FillingsUpdate:  mu: -0.187722571  nElectrons: 250.000000
	SubspaceRotationAdjust: set factor to 0.198
ElecMinimize: Iter:   3  F: -1034.612865790566048  |grad|_K:  1.131e-05  alpha:  5.342e-02  linmin:  6.398e-06  t[s]:    147.57
	Linear fluid (dielectric constant: 78.4, screening length: 5.74355 Bohr) occupying 0.528489 of unit cell:	Completed after 7 iterations at t[s]:    157.14
ElecMinimize: 	Predicted alpha/alphaT>3.000000, increasing alphaT to 1.602694e-01.
	Linear fluid (dielectric constant: 78.4, screening length: 5.74355 Bohr) occupying 0.528393 of unit cell:	Completed after 9 iterations at t[s]:    166.53
	Linear fluid (dielectric constant: 78.4, screening length: 5.74355 Bohr) occupying 0.528391 of unit cell:	Completed after 2 iterations at t[s]:    176.00
	FillingsUpdate:  mu: -0.187090503  nElectrons: 250.000000
	SubspaceRotationAdjust: set factor to 0.18
ElecMinimize: Iter:   4  F: -1034.612914711886106  |grad|_K:  6.002e-06  alpha:  1.622e-01  linmin: -4.904e-05  t[s]:    190.71
	Linear fluid (dielectric constant: 78.4, screening length: 5.74355 Bohr) occupying 0.528295 of unit cell:	Completed after 10 iterations at t[s]:    200.81
	Linear fluid (dielectric constant: 78.4, screening length: 5.74355 Bohr) occupying 0.528273 of unit cell:	Completed after 6 iterations at t[s]:    210.22
	FillingsUpdate:  mu: -0.187212645  nElectrons: 250.000000
	SubspaceRotationAdjust: set factor to 0.161
ElecMinimize: Iter:   5  F: -1034.612931566224006  |grad|_K:  4.717e-06  alpha:  1.982e-01  linmin: -1.132e-05  t[s]:    225.62
	Linear fluid (dielectric constant: 78.4, screening length: 5.74355 Bohr) occupying 0.528200 of unit cell:	Completed after 11 iterations at t[s]:    235.29
	Linear fluid (dielectric constant: 78.4, screening length: 5.74355 Bohr) occupying 0.528186 of unit cell:	Completed after 4 iterations at t[s]:    244.41
	FillingsUpdate:  mu: -0.187745326  nElectrons: 250.000000
	SubspaceRotationAdjust: set factor to 0.159
ElecMinimize: Iter:   6  F: -1034.612944017172140  |grad|_K:  3.610e-06  alpha:  2.371e-01  linmin: -4.824e-05  t[s]:    259.53
	Linear fluid (dielectric constant: 78.4, screening length: 5.74355 Bohr) occupying 0.528140 of unit cell:	Completed after 11 iterations at t[s]:    269.23
	Linear fluid (dielectric constant: 78.4, screening length: 5.74355 Bohr) occupying 0.528136 of unit cell:	Completed after 3 iterations at t[s]:    278.09
	FillingsUpdate:  mu: -0.188219493  nElectrons: 250.000000
	SubspaceRotationAdjust: set factor to 0.158
ElecMinimize: Iter:   7  F: -1034.612951950624165  |grad|_K:  2.779e-06  alpha:  2.569e-01  linmin: -8.246e-05  t[s]:    293.51
	Linear fluid (dielectric constant: 78.4, screening length: 5.74355 Bohr) occupying 0.528070 of unit cell:	Completed after 10 iterations at t[s]:    303.07
	Linear fluid (dielectric constant: 78.4, screening length: 5.74355 Bohr) occupying 0.528078 of unit cell:	Completed after 3 iterations at t[s]:    311.85
	FillingsUpdate:  mu: -0.188377150  nElectrons: 250.000000
	SubspaceRotationAdjust: set factor to 0.158
ElecMinimize: Iter:   8  F: -1034.612956069368238  |grad|_K:  1.900e-06  alpha:  2.244e-01  linmin:  3.713e-06  t[s]:    327.34
ElecMinimize: Converged (|Delta F|<1.000000e-05 for 2 iters).
Setting wave functions to eigenvectors of Hamiltonian

# Ionic positions in cartesian coordinates:
ion V   0.000297000000000   0.000206000000000  40.527760999999998 1
ion V  -2.867357999999999   4.115779999999999  33.076448999999997 1
ion V   0.000297000000000   0.000206000000000  51.335754999999992 1
ion V  -2.867357999999999   4.115779999999999  43.884442999999983 1
ion V   2.087893999999999   6.178677999999999  29.394374999999997 1
ion V   2.923822000000000   2.052782000000000  35.129578999999993 1
ion V   0.000297000000000   0.000206000000000  62.143747999999995 1
ion V  -2.867357999999999   4.115779999999999  54.692435999999994 1
ion V   2.087893999999999   6.178677999999999  40.202368999999983 1
ion V   2.923822000000000   2.052782000000000  45.937573000000000 1
ion O  -0.406594999999999   3.963560999999999  29.978448999999998 1
ion O  -3.080845999999999   7.974219999999999  22.816246999999997 1
ion O   8.092021000000001   0.256846000000000  30.899395999999992 1
ion O   5.417259000000000   4.267018999999999  23.737565000000000 1
ion O  -0.406594999999999   3.963560999999999  40.786441999999994 1
ion O   4.781548000000001   4.427946999999999  29.221173999999994 1
ion O   2.336115000000000   7.929795999999998  21.273168999999999 1
ion O  -3.080845999999999   7.974219999999999  33.624240999999998 1
ion O   8.092021000000001   0.256846000000000  41.707389999999990 1
ion O   2.674004000000000   0.301442000000000  43.251495999999996 1
ion O   0.229520000000000   3.803208999999999  35.304034999999999 1
ion O   5.417259000000000   4.267018999999999  34.545558999999997 1
ion O  -0.406594999999999   3.963560999999999  51.594435999999995 1
ion O   4.781548000000001   4.427946999999999  40.029167999999999 1
ion O   2.336115000000000   7.929795999999998  32.081162999999989 1
ion O  -3.080845999999999   7.974219999999999  44.432234000000001 1
ion O   8.092021000000001   0.256846000000000  52.515383999999983 1
ion O   2.674004000000000   0.301442000000000  54.059489999999990 1
ion O   0.229520000000000   3.803208999999999  46.112028999999993 1
ion O   5.417259000000000   4.267018999999999  45.353552999999991 1

# Forces in Cartesian coordinates:
force V   0.017356609176665   0.036223957671440   0.047338128312633 1
force V   0.016542653496473   0.039262728596620   0.056014069719654 1
force V   0.000932640113979   0.001691750430971  -0.001845114025602 1
force V   0.001575956915636   0.001846850505634  -0.001740714190384 1
force V  -0.017627283414666  -0.012453784478154  -0.004621602481892 1
force V  -0.000955631539088  -0.033446259429945   0.072313129097249 1
force V  -0.015875575239386  -0.033590010270345  -0.052476265115236 1
force V  -0.014150110900610  -0.036628728641161  -0.060148335303285 1
force V  -0.000326569922701   0.031085441134644  -0.069651465096462 1
force V   0.017027373545417   0.012439267419508   0.007001648932587 1
force O  -0.001034623188188   0.032422000904643   0.017118409522483 1
force O  -0.034302687025983   0.056152002619810  -0.019726229504096 1
force O   0.033354847851638   0.032491925074232  -0.045825601129257 1
force O   0.032799915408177   0.019589404080620  -0.048946147911491 1
force O   0.010679127784703  -0.003658960612899   0.001434809338100 1
force O   0.018365113270504  -0.005071122920631   0.022683709101451 1
force O   0.056730326751675   0.001874379811965   0.064514577982257 1
force O  -0.000098242231021  -0.000859862977781  -0.018363792489048 1
force O   0.000022768947297   0.000970259264016   0.018325990573602 1
force O  -0.025066875912112  -0.007126130881964  -0.027268947017847 1
force O  -0.022377763991022  -0.011521022612160  -0.031621527876076 1
force O  -0.009632719605912   0.003953001457402  -0.002234261012749 1
force O  -0.032937610448049  -0.019070770398689   0.048668005481493 1
force O   0.022139185632356   0.012076462573677   0.031023033213610 1
force O   0.025027046687805   0.007375561987854   0.027673905644517 1
force O  -0.033531573264176  -0.032123444508904   0.045923365032140 1
force O   0.034235518318760  -0.055991305938810   0.019900418977818 1
force O  -0.056426728372450  -0.001982964843101  -0.064429439434195 1
force O  -0.018515008581295   0.005449620621233  -0.022878485077368 1
force O   0.001541310532382  -0.032095198271831  -0.017826798389383 1

# Energy components:
   A_diel =       -0.2692485366281728
   Eewald =     1419.7625376429457447
       EH =     2314.4065290731246023
     Eloc =    -4991.6117084473371506
      Enl =       45.4546532688197260
      Exc =     -167.6042751793006289
 Exc_core =        9.4982509039208978
       KE =      335.8948922509038084
-------------------------------------
     Etot =    -1034.4683690235510767
       TS =        0.1445870458170691
-------------------------------------
        F =    -1034.6129560693682379

IonicMinimize: Iter:   0  F: -1034.612956069368238  |grad|_K:  3.039e-02  t[s]:    350.45
IonicMinimize: None of the convergence criteria satisfied after 0 iterations.

#--- Lowdin population analysis ---
# oxidation-state V +1.470 +1.492 +1.349 +1.348 +1.323 +1.409 +1.536 +1.476 +1.414 +1.320
# oxidation-state O -0.688 -0.638 -0.782 -0.772 -0.636 -0.559 -0.790 -0.666 -0.666 -0.560 -0.519 -0.636 -0.772 -0.519 -0.560 -0.782 -0.638 -0.790 -0.559 -0.688


Dumping 'fillings' ... done
Dumping 'wfns' ... done
Dumping 'fluidState' ... done
Dumping 'eigenvals' ... done
End date and time: Mon Sep  1 20:21:32 2025  (Duration: 0-0:05:51.26)
Done!
