{"timestamp":"2025-09-01T16:52:59.786959","level":"info","event":"DAG bundles loaded: dags-folder","logger":"airflow.dag_processing.bundles.manager.DagBundlesManager"}
{"timestamp":"2025-09-01T16:52:59.787537","level":"info","event":"Filling up the DagBag from /opt/airflow/dags/my_dag.py","logger":"airflow.models.dagbag.DagBag"}
{"timestamp":"2025-09-01T16:53:09.226348Z","level":"info","event":"","chan":"stdout","logger":"task"}
{"timestamp":"2025-09-01T16:53:09.226901Z","level":"info","event":"*************** JDFTx 1.7.0  ***************","chan":"stdout","logger":"task"}
{"timestamp":"2025-09-01T16:53:09.228175Z","level":"info","event":"","chan":"stdout","logger":"task"}
{"timestamp":"2025-09-01T16:53:09.234464Z","level":"info","event":"Start date and time: Mon Sep  1 16:53:09 2025","chan":"stdout","logger":"task"}
{"timestamp":"2025-09-01T16:53:09.235067Z","level":"info","event":"Executable jdftx with command-line: -i /opt/airflow/output/gc_dft/mp-755394-111-5_-0.1.in","chan":"stdout","logger":"task"}
{"timestamp":"2025-09-01T16:53:09.236250Z","level":"info","event":"Running on hosts (process indices):  4c196f876d10 (0)","chan":"stdout","logger":"task"}
{"timestamp":"2025-09-01T16:53:09.236703Z","level":"info","event":"Divided in process groups (process indices):  0 (0)","chan":"stdout","logger":"task"}
{"timestamp":"2025-09-01T16:53:09.237339Z","level":"info","event":"Resource initialization completed at t[s]:      0.00","chan":"stdout","logger":"task"}
{"timestamp":"2025-09-01T16:53:09.237764Z","level":"info","event":"Run totals: 1 processes, 8 threads, 0 GPUs","chan":"stdout","logger":"task"}
{"timestamp":"2025-09-01T16:53:09.238063Z","level":"info","event":"","chan":"stdout","logger":"task"}
{"timestamp":"2025-09-01T16:53:09.238757Z","level":"info","event":"","chan":"stdout","logger":"task"}
{"timestamp":"2025-09-01T16:53:09.239101Z","level":"info","event":"Input parsed successfully to the following command list (including defaults):","chan":"stdout","logger":"task"}
{"timestamp":"2025-09-01T16:53:09.239607Z","level":"info","event":"","chan":"stdout","logger":"task"}
{"timestamp":"2025-09-01T16:53:09.240055Z","level":"info","event":"basis kpoint-dependent","chan":"stdout","logger":"task"}
{"timestamp":"2025-09-01T16:53:09.240411Z","level":"info","event":"coords-type Cartesian","chan":"stdout","logger":"task"}
{"timestamp":"2025-09-01T16:53:09.240714Z","level":"info","event":"core-overlap-check vector","chan":"stdout","logger":"task"}
{"timestamp":"2025-09-01T16:53:09.241066Z","level":"info","event":"coulomb-interaction Periodic","chan":"stdout","logger":"task"}
{"timestamp":"2025-09-01T16:53:09.241441Z","level":"info","event":"davidson-band-ratio 1.1","chan":"stdout","logger":"task"}
{"timestamp":"2025-09-01T16:53:09.241828Z","level":"info","event":"dump End State","chan":"stdout","logger":"task"}
{"timestamp":"2025-09-01T16:53:09.242215Z","level":"info","event":"dump-name $INPUT.$VAR","chan":"stdout","logger":"task"}
{"timestamp":"2025-09-01T16:53:09.242539Z","level":"info","event":"elec-cutoff 5","chan":"stdout","logger":"task"}
{"timestamp":"2025-09-01T16:53:09.243228Z","level":"info","event":"elec-eigen-algo Davidson","chan":"stdout","logger":"task"}
{"timestamp":"2025-09-01T16:53:09.244270Z","level":"info","event":"elec-ex-corr gga-PBE","chan":"stdout","logger":"task"}
{"timestamp":"2025-09-01T16:53:09.244636Z","level":"info","event":"elec-initial-charge -0.100000","chan":"stdout","logger":"task"}
{"timestamp":"2025-09-01T16:53:09.244967Z","level":"info","event":"elec-smearing Fermi 0.00734","chan":"stdout","logger":"task"}
{"timestamp":"2025-09-01T16:53:09.245263Z","level":"info","event":"electronic-minimize  \\","chan":"stdout","logger":"task"}
{"timestamp":"2025-09-01T16:53:09.245609Z","level":"info","event":"\tdirUpdateScheme      FletcherReeves \\","chan":"stdout","logger":"task"}
{"timestamp":"2025-09-01T16:53:09.245982Z","level":"info","event":"\tlinminMethod         DirUpdateRecommended \\","chan":"stdout","logger":"task"}
{"timestamp":"2025-09-01T16:53:09.246360Z","level":"info","event":"\tnIterations          20 \\","chan":"stdout","logger":"task"}
{"timestamp":"2025-09-01T16:53:09.246867Z","level":"info","event":"\thistory              15 \\","chan":"stdout","logger":"task"}
{"timestamp":"2025-09-01T16:53:09.247321Z","level":"info","event":"\tknormThreshold       0 \\","chan":"stdout","logger":"task"}
{"timestamp":"2025-09-01T16:53:09.247693Z","level":"info","event":"\tmaxThreshold         no \\","chan":"stdout","logger":"task"}
{"timestamp":"2025-09-01T16:53:09.248066Z","level":"info","event":"\tenergyDiffThreshold  1e-05 \\","chan":"stdout","logger":"task"}
{"timestamp":"2025-09-01T16:53:09.248396Z","level":"info","event":"\tnEnergyDiff          2 \\","chan":"stdout","logger":"task"}
{"timestamp":"2025-09-01T16:53:09.248714Z","level":"info","event":"\tconvergeAll          no \\","chan":"stdout","logger":"task"}
{"timestamp":"2025-09-01T16:53:09.249792Z","level":"info","event":"\talphaTstart          1 \\","chan":"stdout","logger":"task"}
{"timestamp":"2025-09-01T16:53:09.250206Z","level":"info","event":"\talphaTmin            1e-10 \\","chan":"stdout","logger":"task"}
{"timestamp":"2025-09-01T16:53:09.250537Z","level":"info","event":"\tupdateTestStepSize   yes \\","chan":"stdout","logger":"task"}
{"timestamp":"2025-09-01T16:53:09.250844Z","level":"info","event":"\talphaTreduceFactor   0.1 \\","chan":"stdout","logger":"task"}
{"timestamp":"2025-09-01T16:53:09.251248Z","level":"info","event":"\talphaTincreaseFactor 3 \\","chan":"stdout","logger":"task"}
{"timestamp":"2025-09-01T16:53:09.251567Z","level":"info","event":"\tnAlphaAdjustMax      3 \\","chan":"stdout","logger":"task"}
{"timestamp":"2025-09-01T16:53:09.251862Z","level":"info","event":"\twolfeEnergy          0.0001 \\","chan":"stdout","logger":"task"}
{"timestamp":"2025-09-01T16:53:09.252632Z","level":"info","event":"\twolfeGradient        0.9 \\","chan":"stdout","logger":"task"}
{"timestamp":"2025-09-01T16:53:09.252935Z","level":"info","event":"\tabortOnFailedStep    no \\","chan":"stdout","logger":"task"}
{"timestamp":"2025-09-01T16:53:09.253435Z","level":"info","event":"\tfdTest               no","chan":"stdout","logger":"task"}
{"timestamp":"2025-09-01T16:53:09.256603Z","level":"info","event":"exchange-regularization WignerSeitzTruncated","chan":"stdout","logger":"task"}
{"timestamp":"2025-09-01T16:53:09.257475Z","level":"info","event":"fluid LinearPCM 298.000000 1.013250","chan":"stdout","logger":"task"}
{"timestamp":"2025-09-01T16:53:09.257820Z","level":"info","event":"fluid-anion F- 1 MeanFieldLJ \\","chan":"stdout","logger":"task"}
{"timestamp":"2025-09-01T16:53:09.258171Z","level":"info","event":"\tepsBulk 1 \\","chan":"stdout","logger":"task"}
{"timestamp":"2025-09-01T16:53:09.258474Z","level":"info","event":"\tpMol 0 \\","chan":"stdout","logger":"task"}
{"timestamp":"2025-09-01T16:53:09.259577Z","level":"info","event":"\tepsInf 1 \\","chan":"stdout","logger":"task"}
{"timestamp":"2025-09-01T16:53:09.260140Z","level":"info","event":"\tPvap 0 \\","chan":"stdout","logger":"task"}
{"timestamp":"2025-09-01T16:53:09.260820Z","level":"info","event":"\tsigmaBulk 0 \\","chan":"stdout","logger":"task"}
{"timestamp":"2025-09-01T16:53:09.261175Z","level":"info","event":"\tRvdw 2.24877 \\","chan":"stdout","logger":"task"}
{"timestamp":"2025-09-01T16:53:09.261570Z","level":"info","event":"\tRes 0 \\","chan":"stdout","logger":"task"}
{"timestamp":"2025-09-01T16:53:09.261958Z","level":"info","event":"\ttauNuc 343133","chan":"stdout","logger":"task"}
{"timestamp":"2025-09-01T16:53:09.262387Z","level":"info","event":"fluid-cation Na+ 1 MeanFieldLJ \\","chan":"stdout","logger":"task"}
{"timestamp":"2025-09-01T16:53:09.262675Z","level":"info","event":"\tepsBulk 1 \\","chan":"stdout","logger":"task"}
{"timestamp":"2025-09-01T16:53:09.262957Z","level":"info","event":"\tpMol 0 \\","chan":"stdout","logger":"task"}
{"timestamp":"2025-09-01T16:53:09.263237Z","level":"info","event":"\tepsInf 1 \\","chan":"stdout","logger":"task"}
{"timestamp":"2025-09-01T16:53:09.263561Z","level":"info","event":"\tPvap 0 \\","chan":"stdout","logger":"task"}
{"timestamp":"2025-09-01T16:53:09.263889Z","level":"info","event":"\tsigmaBulk 0 \\","chan":"stdout","logger":"task"}
{"timestamp":"2025-09-01T16:53:09.264581Z","level":"info","event":"\tRvdw 2.19208 \\","chan":"stdout","logger":"task"}
{"timestamp":"2025-09-01T16:53:09.264878Z","level":"info","event":"\tRes 0 \\","chan":"stdout","logger":"task"}
{"timestamp":"2025-09-01T16:53:09.265189Z","level":"info","event":"\ttauNuc 343133","chan":"stdout","logger":"task"}
{"timestamp":"2025-09-01T16:53:09.265517Z","level":"info","event":"fluid-ex-corr lda-TF lda-PZ","chan":"stdout","logger":"task"}
{"timestamp":"2025-09-01T16:53:09.265842Z","level":"info","event":"fluid-gummel-loop 10 1.000000e-05","chan":"stdout","logger":"task"}
{"timestamp":"2025-09-01T16:53:09.266179Z","level":"info","event":"fluid-minimize  \\","chan":"stdout","logger":"task"}
{"timestamp":"2025-09-01T16:53:09.269213Z","level":"info","event":"\tdirUpdateScheme      PolakRibiere \\","chan":"stdout","logger":"task"}
{"timestamp":"2025-09-01T16:53:09.270094Z","level":"info","event":"\tlinminMethod         DirUpdateRecommended \\","chan":"stdout","logger":"task"}
{"timestamp":"2025-09-01T16:53:09.270531Z","level":"info","event":"\tnIterations          400 \\","chan":"stdout","logger":"task"}
{"timestamp":"2025-09-01T16:53:09.271200Z","level":"info","event":"\thistory              15 \\","chan":"stdout","logger":"task"}
{"timestamp":"2025-09-01T16:53:09.271727Z","level":"info","event":"\tknormThreshold       1e-11 \\","chan":"stdout","logger":"task"}
{"timestamp":"2025-09-01T16:53:09.272099Z","level":"info","event":"\tmaxThreshold         no \\","chan":"stdout","logger":"task"}
{"timestamp":"2025-09-01T16:53:09.274440Z","level":"info","event":"\tenergyDiffThreshold  0 \\","chan":"stdout","logger":"task"}
{"timestamp":"2025-09-01T16:53:09.274881Z","level":"info","event":"\tnEnergyDiff          2 \\","chan":"stdout","logger":"task"}
{"timestamp":"2025-09-01T16:53:09.283510Z","level":"info","event":"\tconvergeAll          no \\","chan":"stdout","logger":"task"}
{"timestamp":"2025-09-01T16:53:09.284102Z","level":"info","event":"\talphaTstart          1 \\","chan":"stdout","logger":"task"}
{"timestamp":"2025-09-01T16:53:09.284475Z","level":"info","event":"\talphaTmin            1e-10 \\","chan":"stdout","logger":"task"}
{"timestamp":"2025-09-01T16:53:09.284836Z","level":"info","event":"\tupdateTestStepSize   yes \\","chan":"stdout","logger":"task"}
{"timestamp":"2025-09-01T16:53:09.285193Z","level":"info","event":"\talphaTreduceFactor   0.1 \\","chan":"stdout","logger":"task"}
{"timestamp":"2025-09-01T16:53:09.285543Z","level":"info","event":"\talphaTincreaseFactor 3 \\","chan":"stdout","logger":"task"}
{"timestamp":"2025-09-01T16:53:09.285917Z","level":"info","event":"\tnAlphaAdjustMax      6 \\","chan":"stdout","logger":"task"}
{"timestamp":"2025-09-01T16:53:09.288164Z","level":"info","event":"\twolfeEnergy          0.0001 \\","chan":"stdout","logger":"task"}
{"timestamp":"2025-09-01T16:53:09.293244Z","level":"info","event":"\twolfeGradient        0.9 \\","chan":"stdout","logger":"task"}
{"timestamp":"2025-09-01T16:53:09.293742Z","level":"info","event":"\tabortOnFailedStep    no \\","chan":"stdout","logger":"task"}
{"timestamp":"2025-09-01T16:53:09.294874Z","level":"info","event":"\tfdTest               no","chan":"stdout","logger":"task"}
{"timestamp":"2025-09-01T16:53:09.295348Z","level":"info","event":"fluid-solvent H2O 55.338 ScalarEOS \\","chan":"stdout","logger":"task"}
{"timestamp":"2025-09-01T16:53:09.295676Z","level":"info","event":"\tepsBulk 78.4 \\","chan":"stdout","logger":"task"}
{"timestamp":"2025-09-01T16:53:09.296026Z","level":"info","event":"\tpMol 0.92466 \\","chan":"stdout","logger":"task"}
{"timestamp":"2025-09-01T16:53:09.296340Z","level":"info","event":"\tepsInf 1.77 \\","chan":"stdout","logger":"task"}
{"timestamp":"2025-09-01T16:53:09.296873Z","level":"info","event":"\tPvap 1.06736e-10 \\","chan":"stdout","logger":"task"}
{"timestamp":"2025-09-01T16:53:09.297270Z","level":"info","event":"\tsigmaBulk 4.62e-05 \\","chan":"stdout","logger":"task"}
{"timestamp":"2025-09-01T16:53:09.297613Z","level":"info","event":"\tRvdw 2.61727 \\","chan":"stdout","logger":"task"}
{"timestamp":"2025-09-01T16:53:09.301259Z","level":"info","event":"\tRes 1.42 \\","chan":"stdout","logger":"task"}
{"timestamp":"2025-09-01T16:53:09.302265Z","level":"info","event":"\ttauNuc 343133 \\","chan":"stdout","logger":"task"}
{"timestamp":"2025-09-01T16:53:09.302664Z","level":"info","event":"\tpoleEl 15 7 1","chan":"stdout","logger":"task"}
{"timestamp":"2025-09-01T16:53:09.303034Z","level":"info","event":"forces-output-coords Positions","chan":"stdout","logger":"task"}
{"timestamp":"2025-09-01T16:53:09.303599Z","level":"info","event":"initial-state $VAR","chan":"stdout","logger":"task"}
{"timestamp":"2025-09-01T16:53:09.303906Z","level":"info","event":"ion V   0.000297000000000   0.000206000000000  38.346984999999997 1","chan":"stdout","logger":"task"}
{"timestamp":"2025-09-01T16:53:09.304476Z","level":"info","event":"ion V  -2.867357999999999   4.115779999999999  30.895672999999995 1","chan":"stdout","logger":"task"}
{"timestamp":"2025-09-01T16:53:09.304949Z","level":"info","event":"ion V   2.087893999999999   6.178677999999999  16.405605000000001 1","chan":"stdout","logger":"task"}
{"timestamp":"2025-09-01T16:53:09.305290Z","level":"info","event":"ion V   2.923822000000000   2.052782000000000  32.948802999999998 1","chan":"stdout","logger":"task"}
{"timestamp":"2025-09-01T16:53:09.305759Z","level":"info","event":"ion V   0.000297000000000   0.000206000000000  49.154978999999990 1","chan":"stdout","logger":"task"}
{"timestamp":"2025-09-01T16:53:09.306283Z","level":"info","event":"ion V  -2.867357999999999   4.115779999999999  41.703666999999996 1","chan":"stdout","logger":"task"}
{"timestamp":"2025-09-01T16:53:09.306679Z","level":"info","event":"ion V   2.087893999999999   6.178677999999999  27.213598999999995 1","chan":"stdout","logger":"task"}
{"timestamp":"2025-09-01T16:53:09.307018Z","level":"info","event":"ion V   2.923822000000000   2.052782000000000  43.756796999999992 1","chan":"stdout","logger":"task"}
{"timestamp":"2025-09-01T16:53:09.307324Z","level":"info","event":"ion V   0.000297000000000   0.000206000000000  59.962971999999993 1","chan":"stdout","logger":"task"}
{"timestamp":"2025-09-01T16:53:09.307662Z","level":"info","event":"ion V  -2.867357999999999   4.115779999999999  52.511659999999992 1","chan":"stdout","logger":"task"}
{"timestamp":"2025-09-01T16:53:09.308150Z","level":"info","event":"ion V   2.087893999999999   6.178677999999999  38.021592999999996 1","chan":"stdout","logger":"task"}
{"timestamp":"2025-09-01T16:53:09.308527Z","level":"info","event":"ion V   2.923822000000000   2.052782000000000  54.564791000000000 1","chan":"stdout","logger":"task"}
{"timestamp":"2025-09-01T16:53:09.308850Z","level":"info","event":"ion O  -0.406594999999999   3.963560999999999  27.797672999999996 1","chan":"stdout","logger":"task"}
{"timestamp":"2025-09-01T16:53:09.309260Z","level":"info","event":"ion O   2.336115000000000   7.929795999999998  19.092392999999998 1","chan":"stdout","logger":"task"}
{"timestamp":"2025-09-01T16:53:09.309608Z","level":"info","event":"ion O  -3.080845999999999   7.974219999999999  20.635470999999995 1","chan":"stdout","logger":"task"}
{"timestamp":"2025-09-01T16:53:09.310555Z","level":"info","event":"ion O   8.092021000000001   0.256846000000000  28.718620999999995 1","chan":"stdout","logger":"task"}
{"timestamp":"2025-09-01T16:53:09.311189Z","level":"info","event":"ion O   2.674004000000000   0.301442000000000  30.262725999999997 1","chan":"stdout","logger":"task"}
{"timestamp":"2025-09-01T16:53:09.311768Z","level":"info","event":"ion O   5.417259000000000   4.267018999999999  21.556788999999998 1","chan":"stdout","logger":"task"}
{"timestamp":"2025-09-01T16:53:09.312171Z","level":"info","event":"ion O  -0.406594999999999   3.963560999999999  38.605665999999992 1","chan":"stdout","logger":"task"}
{"timestamp":"2025-09-01T16:53:09.312488Z","level":"info","event":"ion O   4.781548000000001   4.427946999999999  27.040397999999993 1","chan":"stdout","logger":"task"}
{"timestamp":"2025-09-01T16:53:09.313963Z","level":"info","event":"ion O   2.336115000000000   7.929795999999998  29.900386999999984 1","chan":"stdout","logger":"task"}
{"timestamp":"2025-09-01T16:53:09.314395Z","level":"info","event":"ion O  -3.080845999999999   7.974219999999999  31.443464999999996 1","chan":"stdout","logger":"task"}
{"timestamp":"2025-09-01T16:53:09.315232Z","level":"info","event":"ion O   8.092021000000001   0.256846000000000  39.526613999999995 1","chan":"stdout","logger":"task"}
{"timestamp":"2025-09-01T16:53:09.316716Z","level":"info","event":"ion O   2.674004000000000   0.301442000000000  41.070720000000001 1","chan":"stdout","logger":"task"}
{"timestamp":"2025-09-01T16:53:09.317323Z","level":"info","event":"ion O   0.229520000000000   3.803208999999999  33.123258999999990 1","chan":"stdout","logger":"task"}
{"timestamp":"2025-09-01T16:53:09.317716Z","level":"info","event":"ion O   5.417259000000000   4.267018999999999  32.364783000000003 1","chan":"stdout","logger":"task"}
{"timestamp":"2025-09-01T16:53:09.318043Z","level":"info","event":"ion O  -0.406594999999999   3.963560999999999  49.413659999999993 1","chan":"stdout","logger":"task"}
{"timestamp":"2025-09-01T16:53:09.321236Z","level":"info","event":"ion O   4.781548000000001   4.427946999999999  37.848391999999990 1","chan":"stdout","logger":"task"}
{"timestamp":"2025-09-01T16:53:09.322066Z","level":"info","event":"ion O   2.336115000000000   7.929795999999998  40.708380999999989 1","chan":"stdout","logger":"task"}
{"timestamp":"2025-09-01T16:53:09.322748Z","level":"info","event":"ion O  -3.080845999999999   7.974219999999999  42.251458000000000 1","chan":"stdout","logger":"task"}
{"timestamp":"2025-09-01T16:53:09.324806Z","level":"info","event":"ion O   8.092021000000001   0.256846000000000  50.334608000000003 1","chan":"stdout","logger":"task"}
{"timestamp":"2025-09-01T16:53:09.325361Z","level":"info","event":"ion O   2.674004000000000   0.301442000000000  51.878714000000002 1","chan":"stdout","logger":"task"}
{"timestamp":"2025-09-01T16:53:09.325717Z","level":"info","event":"ion O   0.229520000000000   3.803208999999999  43.931252999999998 1","chan":"stdout","logger":"task"}
{"timestamp":"2025-09-01T16:53:09.326085Z","level":"info","event":"ion O   5.417259000000000   4.267018999999999  43.172776999999996 1","chan":"stdout","logger":"task"}
{"timestamp":"2025-09-01T16:53:09.326490Z","level":"info","event":"ion-species GBRV/$ID_pbe.uspp","chan":"stdout","logger":"task"}
{"timestamp":"2025-09-01T16:53:09.326853Z","level":"info","event":"ion-width Ecut","chan":"stdout","logger":"task"}
{"timestamp":"2025-09-01T16:53:09.327260Z","level":"info","event":"ionic-minimize  \\","chan":"stdout","logger":"task"}
{"timestamp":"2025-09-01T16:53:09.327651Z","level":"info","event":"\tdirUpdateScheme      L-BFGS \\","chan":"stdout","logger":"task"}
{"timestamp":"2025-09-01T16:53:09.327935Z","level":"info","event":"\tlinminMethod         DirUpdateRecommended \\","chan":"stdout","logger":"task"}
{"timestamp":"2025-09-01T16:53:09.328170Z","level":"info","event":"\tnIterations          0 \\","chan":"stdout","logger":"task"}
{"timestamp":"2025-09-01T16:53:09.328587Z","level":"info","event":"\thistory              15 \\","chan":"stdout","logger":"task"}
{"timestamp":"2025-09-01T16:53:09.329142Z","level":"info","event":"\tknormThreshold       0.0001 \\","chan":"stdout","logger":"task"}
{"timestamp":"2025-09-01T16:53:09.329550Z","level":"info","event":"\tmaxThreshold         no \\","chan":"stdout","logger":"task"}
{"timestamp":"2025-09-01T16:53:09.333230Z","level":"info","event":"\tenergyDiffThreshold  1e-06 \\","chan":"stdout","logger":"task"}
{"timestamp":"2025-09-01T16:53:09.333989Z","level":"info","event":"\tnEnergyDiff          2 \\","chan":"stdout","logger":"task"}
{"timestamp":"2025-09-01T16:53:09.334439Z","level":"info","event":"\tconvergeAll          no \\","chan":"stdout","logger":"task"}
{"timestamp":"2025-09-01T16:53:09.334980Z","level":"info","event":"\talphaTstart          1 \\","chan":"stdout","logger":"task"}
{"timestamp":"2025-09-01T16:53:09.335441Z","level":"info","event":"\talphaTmin            1e-10 \\","chan":"stdout","logger":"task"}
{"timestamp":"2025-09-01T16:53:09.336140Z","level":"info","event":"\tupdateTestStepSize   yes \\","chan":"stdout","logger":"task"}
{"timestamp":"2025-09-01T16:53:09.338006Z","level":"info","event":"\talphaTreduceFactor   0.1 \\","chan":"stdout","logger":"task"}
{"timestamp":"2025-09-01T16:53:09.338461Z","level":"info","event":"\talphaTincreaseFactor 3 \\","chan":"stdout","logger":"task"}
{"timestamp":"2025-09-01T16:53:09.338872Z","level":"info","event":"\tnAlphaAdjustMax      3 \\","chan":"stdout","logger":"task"}
{"timestamp":"2025-09-01T16:53:09.339305Z","level":"info","event":"\twolfeEnergy          0.0001 \\","chan":"stdout","logger":"task"}
{"timestamp":"2025-09-01T16:53:09.339741Z","level":"info","event":"\twolfeGradient        0.9 \\","chan":"stdout","logger":"task"}
{"timestamp":"2025-09-01T16:53:09.341571Z","level":"info","event":"\tabortOnFailedStep    no \\","chan":"stdout","logger":"task"}
{"timestamp":"2025-09-01T16:53:09.345303Z","level":"info","event":"\tfdTest               no","chan":"stdout","logger":"task"}
{"timestamp":"2025-09-01T16:53:09.346174Z","level":"info","event":"kpoint   0.500000000000   0.500000000000   0.500000000000  1.00000000000000","chan":"stdout","logger":"task"}
{"timestamp":"2025-09-01T16:53:09.346613Z","level":"info","event":"kpoint-folding 1 1 1","chan":"stdout","logger":"task"}
{"timestamp":"2025-09-01T16:53:09.346976Z","level":"info","event":"latt-move-scale 1 1 1","chan":"stdout","logger":"task"}
{"timestamp":"2025-09-01T16:53:09.347331Z","level":"info","event":"latt-scale 1 1 1","chan":"stdout","logger":"task"}
{"timestamp":"2025-09-01T16:53:09.347883Z","level":"info","event":"lattice  \\","chan":"stdout","logger":"task"}
{"timestamp":"2025-09-01T16:53:09.348266Z","level":"info","event":"\t  10.749050000000000   -5.737742000000000    0.000000000000000  \\","chan":"stdout","logger":"task"}
{"timestamp":"2025-09-01T16:53:09.348613Z","level":"info","event":"\t   0.000000000000000    8.231180999999999    0.000000000000000  \\","chan":"stdout","logger":"task"}
{"timestamp":"2025-09-01T16:53:09.349238Z","level":"info","event":"\t -12.434680000000000  -14.908436999999999   97.271944000000005","chan":"stdout","logger":"task"}
{"timestamp":"2025-09-01T16:53:09.349623Z","level":"info","event":"lattice-minimize  \\","chan":"stdout","logger":"task"}
{"timestamp":"2025-09-01T16:53:09.350114Z","level":"info","event":"\tdirUpdateScheme      L-BFGS \\","chan":"stdout","logger":"task"}
{"timestamp":"2025-09-01T16:53:09.357228Z","level":"info","event":"\tlinminMethod         DirUpdateRecommended \\","chan":"stdout","logger":"task"}
{"timestamp":"2025-09-01T16:53:09.357699Z","level":"info","event":"\tnIterations          0 \\","chan":"stdout","logger":"task"}
{"timestamp":"2025-09-01T16:53:09.358185Z","level":"info","event":"\thistory              15 \\","chan":"stdout","logger":"task"}
{"timestamp":"2025-09-01T16:53:09.358606Z","level":"info","event":"\tknormThreshold       0 \\","chan":"stdout","logger":"task"}
{"timestamp":"2025-09-01T16:53:09.358899Z","level":"info","event":"\tmaxThreshold         no \\","chan":"stdout","logger":"task"}
{"timestamp":"2025-09-01T16:53:09.359164Z","level":"info","event":"\tenergyDiffThreshold  1e-06 \\","chan":"stdout","logger":"task"}
{"timestamp":"2025-09-01T16:53:09.359515Z","level":"info","event":"\tnEnergyDiff          2 \\","chan":"stdout","logger":"task"}
{"timestamp":"2025-09-01T16:53:09.359893Z","level":"info","event":"\tconvergeAll          no \\","chan":"stdout","logger":"task"}
{"timestamp":"2025-09-01T16:53:09.360229Z","level":"info","event":"\talphaTstart          1 \\","chan":"stdout","logger":"task"}
{"timestamp":"2025-09-01T16:53:09.360567Z","level":"info","event":"\talphaTmin            1e-10 \\","chan":"stdout","logger":"task"}
{"timestamp":"2025-09-01T16:53:09.361216Z","level":"info","event":"\tupdateTestStepSize   yes \\","chan":"stdout","logger":"task"}
{"timestamp":"2025-09-01T16:53:09.361550Z","level":"info","event":"\talphaTreduceFactor   0.1 \\","chan":"stdout","logger":"task"}
{"timestamp":"2025-09-01T16:53:09.361965Z","level":"info","event":"\talphaTincreaseFactor 3 \\","chan":"stdout","logger":"task"}
{"timestamp":"2025-09-01T16:53:09.362273Z","level":"info","event":"\tnAlphaAdjustMax      3 \\","chan":"stdout","logger":"task"}
{"timestamp":"2025-09-01T16:53:09.362588Z","level":"info","event":"\twolfeEnergy          0.0001 \\","chan":"stdout","logger":"task"}
{"timestamp":"2025-09-01T16:53:09.362904Z","level":"info","event":"\twolfeGradient        0.9 \\","chan":"stdout","logger":"task"}
{"timestamp":"2025-09-01T16:53:09.363217Z","level":"info","event":"\tabortOnFailedStep    no \\","chan":"stdout","logger":"task"}
{"timestamp":"2025-09-01T16:53:09.363609Z","level":"info","event":"\tfdTest               no","chan":"stdout","logger":"task"}
{"timestamp":"2025-09-01T16:53:09.364423Z","level":"info","event":"lcao-params 20 1e-05 0.00734","chan":"stdout","logger":"task"}
{"timestamp":"2025-09-01T16:53:09.364903Z","level":"info","event":"pcm-variant CANDLE","chan":"stdout","logger":"task"}
{"timestamp":"2025-09-01T16:53:09.365207Z","level":"info","event":"perturb-minimize  \\","chan":"stdout","logger":"task"}
{"timestamp":"2025-09-01T16:53:09.365530Z","level":"info","event":"\tnIterations            0 \\","chan":"stdout","logger":"task"}
{"timestamp":"2025-09-01T16:53:09.365853Z","level":"info","event":"\talgorithm              MINRES \\","chan":"stdout","logger":"task"}
{"timestamp":"2025-09-01T16:53:09.366196Z","level":"info","event":"\tresidualTol            0.0001 \\","chan":"stdout","logger":"task"}
{"timestamp":"2025-09-01T16:53:09.366613Z","level":"info","event":"\tresidualDiffThreshold  0.0001 \\","chan":"stdout","logger":"task"}
{"timestamp":"2025-09-01T16:53:09.366950Z","level":"info","event":"\tCGBypass               no \\","chan":"stdout","logger":"task"}
{"timestamp":"2025-09-01T16:53:09.367251Z","level":"info","event":"\trecomputeResidual      no","chan":"stdout","logger":"task"}
{"timestamp":"2025-09-01T16:53:09.368292Z","level":"info","event":"spintype no-spin","chan":"stdout","logger":"task"}
{"timestamp":"2025-09-01T16:53:09.368684Z","level":"info","event":"subspace-rotation-factor 1 yes","chan":"stdout","logger":"task"}
{"timestamp":"2025-09-01T16:53:09.371822Z","level":"info","event":"symmetries automatic","chan":"stdout","logger":"task"}
{"timestamp":"2025-09-01T16:53:09.372991Z","level":"info","event":"symmetry-threshold 0.0001","chan":"stdout","logger":"task"}
{"timestamp":"2025-09-01T16:53:09.373398Z","level":"info","event":"","chan":"stdout","logger":"task"}
{"timestamp":"2025-09-01T16:53:09.373896Z","level":"info","event":"","chan":"stdout","logger":"task"}
{"timestamp":"2025-09-01T16:53:09.374340Z","level":"info","event":"","chan":"stdout","logger":"task"}
{"timestamp":"2025-09-01T16:53:09.374757Z","level":"info","event":"---------- Setting up symmetries ----------","chan":"stdout","logger":"task"}
{"timestamp":"2025-09-01T16:53:09.375227Z","level":"info","event":"","chan":"stdout","logger":"task"}
{"timestamp":"2025-09-01T16:53:09.375599Z","level":"info","event":"Non-trivial transmission matrix:","chan":"stdout","logger":"task"}
{"timestamp":"2025-09-01T16:53:09.375908Z","level":"info","event":"[   1   0   3  ]","chan":"stdout","logger":"task"}
{"timestamp":"2025-09-01T16:53:09.376271Z","level":"info","event":"[   0   1   3  ]","chan":"stdout","logger":"task"}
{"timestamp":"2025-09-01T16:53:09.376764Z","level":"info","event":"[   0   0   1  ]","chan":"stdout","logger":"task"}
{"timestamp":"2025-09-01T16:53:09.377489Z","level":"info","event":"with reduced lattice vectors:","chan":"stdout","logger":"task"}
{"timestamp":"2025-09-01T16:53:09.377856Z","level":"info","event":"[     10.749050     -5.737742     15.033924  ]","chan":"stdout","logger":"task"}
{"timestamp":"2025-09-01T16:53:09.378614Z","level":"info","event":"[      0.000000      8.231181     24.693543  ]","chan":"stdout","logger":"task"}
{"timestamp":"2025-09-01T16:53:09.379178Z","level":"info","event":"[    -12.434680    -14.908437     15.242593  ]","chan":"stdout","logger":"task"}
{"timestamp":"2025-09-01T16:53:09.379717Z","level":"info","event":"","chan":"stdout","logger":"task"}
{"timestamp":"2025-09-01T16:53:09.380054Z","level":"info","event":"Found 2 point-group symmetries of the bravais lattice","chan":"stdout","logger":"task"}
{"timestamp":"2025-09-01T16:53:09.380457Z","level":"info","event":"Found 1 space-group symmetries with basis","chan":"stdout","logger":"task"}
{"timestamp":"2025-09-01T16:53:09.380696Z","level":"info","event":"Applied RMS atom displacement 0 bohrs to make symmetries exact.","chan":"stdout","logger":"task"}
{"timestamp":"2025-09-01T16:53:09.625083Z","level":"info","event":"","chan":"stdout","logger":"task"}
{"timestamp":"2025-09-01T16:53:09.625585Z","level":"info","event":"---------- Initializing the Grid ----------","chan":"stdout","logger":"task"}
{"timestamp":"2025-09-01T16:53:09.625940Z","level":"info","event":"R =","chan":"stdout","logger":"task"}
{"timestamp":"2025-09-01T16:53:09.626766Z","level":"info","event":"[      10.7491     -5.73774            0  ]","chan":"stdout","logger":"task"}
{"timestamp":"2025-09-01T16:53:09.627153Z","level":"info","event":"[            0      8.23118            0  ]","chan":"stdout","logger":"task"}
{"timestamp":"2025-09-01T16:53:09.628830Z","level":"info","event":"[     -12.4347     -14.9084      97.2719  ]","chan":"stdout","logger":"task"}
{"timestamp":"2025-09-01T16:53:09.629251Z","level":"info","event":"unit cell volume = 8606.37","chan":"stdout","logger":"task"}
{"timestamp":"2025-09-01T16:53:09.629643Z","level":"info","event":"G =","chan":"stdout","logger":"task"}
{"timestamp":"2025-09-01T16:53:09.629970Z","level":"info","event":"[   0.584534   0.407463         -0  ]","chan":"stdout","logger":"task"}
{"timestamp":"2025-09-01T16:53:09.630438Z","level":"info","event":"[         -0   0.763339          0  ]","chan":"stdout","logger":"task"}
{"timestamp":"2025-09-01T16:53:09.630817Z","level":"info","event":"[  0.0747234   0.169081   0.064594  ]","chan":"stdout","logger":"task"}
{"timestamp":"2025-09-01T16:53:09.631158Z","level":"info","event":"Minimum fftbox size, Smin = [  36  40  196  ]","chan":"stdout","logger":"task"}
{"timestamp":"2025-09-01T16:53:09.631564Z","level":"info","event":"Chosen fftbox size, S = [  36  40  196  ]","chan":"stdout","logger":"task"}
{"timestamp":"2025-09-01T16:53:09.632330Z","level":"info","event":"","chan":"stdout","logger":"task"}
{"timestamp":"2025-09-01T16:53:09.632696Z","level":"info","event":"---------- Exchange Correlation functional ----------","chan":"stdout","logger":"task"}
{"timestamp":"2025-09-01T16:53:09.633037Z","level":"info","event":"Initalized PBE GGA exchange.","chan":"stdout","logger":"task"}
{"timestamp":"2025-09-01T16:53:09.633334Z","level":"info","event":"Initalized PBE GGA correlation.","chan":"stdout","logger":"task"}
{"timestamp":"2025-09-01T16:53:09.633807Z","level":"info","event":"","chan":"stdout","logger":"task"}
{"timestamp":"2025-09-01T16:53:09.634116Z","level":"info","event":"---------- Setting up pseudopotentials ----------","chan":"stdout","logger":"task"}
{"timestamp":"2025-09-01T16:53:09.635174Z","level":"info","event":"Width of ionic core gaussian charges (only for fluid interactions / plotting) set to 0.794767","chan":"stdout","logger":"task"}
{"timestamp":"2025-09-01T16:53:09.635579Z","level":"info","event":"","chan":"stdout","logger":"task"}
{"timestamp":"2025-09-01T16:53:09.636117Z","level":"info","event":"Reading pseudopotential file '/opt/jdftx-master/build/pseudopotentials/GBRV/v_pbe.uspp':","chan":"stdout","logger":"task"}
{"timestamp":"2025-09-01T16:53:09.636489Z","level":"info","event":"  Title: V.  Created by USPP 7.3.6 on 31-3-15","chan":"stdout","logger":"task"}
{"timestamp":"2025-09-01T16:53:09.636873Z","level":"info","event":"  Reference state energy: -72.228583.  13 valence electrons in orbitals:","chan":"stdout","logger":"task"}
{"timestamp":"2025-09-01T16:53:09.637199Z","level":"info","event":"    |300>  occupation: 2  eigenvalue: -2.581040","chan":"stdout","logger":"task"}
{"timestamp":"2025-09-01T16:53:09.637588Z","level":"info","event":"    |310>  occupation: 6  eigenvalue: -1.618497","chan":"stdout","logger":"task"}
{"timestamp":"2025-09-01T16:53:09.638048Z","level":"info","event":"    |400>  occupation: 2  eigenvalue: -0.172800","chan":"stdout","logger":"task"}
{"timestamp":"2025-09-01T16:53:09.638427Z","level":"info","event":"    |320>  occupation: 3  eigenvalue: -0.189802","chan":"stdout","logger":"task"}
{"timestamp":"2025-09-01T16:53:09.638807Z","level":"info","event":"  lMax: 2  lLocal: 3  QijEcut: 6","chan":"stdout","logger":"task"}
{"timestamp":"2025-09-01T16:53:09.639090Z","level":"info","event":"  6 projectors sampled on a log grid with 593 points:","chan":"stdout","logger":"task"}
{"timestamp":"2025-09-01T16:53:09.639931Z","level":"info","event":"    l: 0  eig: -2.581041  rCut: 1.5","chan":"stdout","logger":"task"}
{"timestamp":"2025-09-01T16:53:09.640282Z","level":"info","event":"    l: 0  eig: -0.172801  rCut: 1.5","chan":"stdout","logger":"task"}
{"timestamp":"2025-09-01T16:53:09.640629Z","level":"info","event":"    l: 1  eig: -1.618497  rCut: 1.6","chan":"stdout","logger":"task"}
{"timestamp":"2025-09-01T16:53:09.641000Z","level":"info","event":"    l: 1  eig: 0.150000  rCut: 1.6","chan":"stdout","logger":"task"}
{"timestamp":"2025-09-01T16:53:09.642104Z","level":"info","event":"    l: 2  eig: -0.189802  rCut: 1.7","chan":"stdout","logger":"task"}
{"timestamp":"2025-09-01T16:53:09.642534Z","level":"info","event":"    l: 2  eig: 0.150000  rCut: 1.7","chan":"stdout","logger":"task"}
{"timestamp":"2025-09-01T16:53:09.642872Z","level":"info","event":"  Partial core density with radius 0.8","chan":"stdout","logger":"task"}
{"timestamp":"2025-09-01T16:53:09.643162Z","level":"info","event":"  Transforming core density to a uniform radial grid of dG=0.02 with 2181 points.","chan":"stdout","logger":"task"}
{"timestamp":"2025-09-01T16:53:09.643471Z","level":"info","event":"  Transforming local potential to a uniform radial grid of dG=0.02 with 2181 points.","chan":"stdout","logger":"task"}
{"timestamp":"2025-09-01T16:53:09.643780Z","level":"info","event":"  Transforming nonlocal projectors to a uniform radial grid of dG=0.02 with 219 points.","chan":"stdout","logger":"task"}
{"timestamp":"2025-09-01T16:53:09.644273Z","level":"info","event":"  Transforming density augmentations to a uniform radial grid of dG=0.02 with 2181 points.","chan":"stdout","logger":"task"}
{"timestamp":"2025-09-01T16:53:09.644568Z","level":"info","event":"  Transforming atomic orbitals to a uniform radial grid of dG=0.02 with 219 points.","chan":"stdout","logger":"task"}
{"timestamp":"2025-09-01T16:53:09.847528Z","level":"info","event":"  Core radius for overlap checks: 1.80 bohrs.","chan":"stdout","logger":"task"}
{"timestamp":"2025-09-01T16:53:09.847955Z","level":"info","event":"","chan":"stdout","logger":"task"}
{"timestamp":"2025-09-01T16:53:09.848304Z","level":"info","event":"Reading pseudopotential file '/opt/jdftx-master/build/pseudopotentials/GBRV/o_pbe.uspp':","chan":"stdout","logger":"task"}
{"timestamp":"2025-09-01T16:53:09.848696Z","level":"info","event":"  Title: O.  Created by USPP 7.3.6 on 3-2-2014","chan":"stdout","logger":"task"}
{"timestamp":"2025-09-01T16:53:09.849019Z","level":"info","event":"  Reference state energy: -15.894388.  6 valence electrons in orbitals:","chan":"stdout","logger":"task"}
{"timestamp":"2025-09-01T16:53:09.850281Z","level":"info","event":"    |200>  occupation: 2  eigenvalue: -0.878823","chan":"stdout","logger":"task"}
{"timestamp":"2025-09-01T16:53:09.851239Z","level":"info","event":"    |210>  occupation: 4  eigenvalue: -0.332131","chan":"stdout","logger":"task"}
{"timestamp":"2025-09-01T16:53:09.851830Z","level":"info","event":"  lMax: 2  lLocal: 2  QijEcut: 6","chan":"stdout","logger":"task"}
{"timestamp":"2025-09-01T16:53:09.852226Z","level":"info","event":"  5 projectors sampled on a log grid with 511 points:","chan":"stdout","logger":"task"}
{"timestamp":"2025-09-01T16:53:09.852706Z","level":"info","event":"    l: 0  eig: -0.878823  rCut: 1.25","chan":"stdout","logger":"task"}
{"timestamp":"2025-09-01T16:53:09.853022Z","level":"info","event":"    l: 0  eig: 0.000000  rCut: 1.25","chan":"stdout","logger":"task"}
{"timestamp":"2025-09-01T16:53:09.853369Z","level":"info","event":"    l: 1  eig: -0.332132  rCut: 1.25","chan":"stdout","logger":"task"}
{"timestamp":"2025-09-01T16:53:09.854445Z","level":"info","event":"    l: 1  eig: 0.000000  rCut: 1.25","chan":"stdout","logger":"task"}
{"timestamp":"2025-09-01T16:53:09.854820Z","level":"info","event":"    l: 2  eig: 1.000000  rCut: 1.25","chan":"stdout","logger":"task"}
{"timestamp":"2025-09-01T16:53:09.855172Z","level":"info","event":"  Partial core density with radius 0.7","chan":"stdout","logger":"task"}
{"timestamp":"2025-09-01T16:53:09.855512Z","level":"info","event":"  Transforming core density to a uniform radial grid of dG=0.02 with 2181 points.","chan":"stdout","logger":"task"}
{"timestamp":"2025-09-01T16:53:09.855827Z","level":"info","event":"  Transforming local potential to a uniform radial grid of dG=0.02 with 2181 points.","chan":"stdout","logger":"task"}
{"timestamp":"2025-09-01T16:53:09.856172Z","level":"info","event":"  Transforming nonlocal projectors to a uniform radial grid of dG=0.02 with 219 points.","chan":"stdout","logger":"task"}
{"timestamp":"2025-09-01T16:53:09.856510Z","level":"info","event":"  Transforming density augmentations to a uniform radial grid of dG=0.02 with 2181 points.","chan":"stdout","logger":"task"}
{"timestamp":"2025-09-01T16:53:09.856863Z","level":"info","event":"  Transforming atomic orbitals to a uniform radial grid of dG=0.02 with 219 points.","chan":"stdout","logger":"task"}
{"timestamp":"2025-09-01T16:53:09.872558Z","level":"info","event":"  Core radius for overlap checks: 1.25 bohrs.","chan":"stdout","logger":"task"}
{"timestamp":"2025-09-01T16:53:09.873141Z","level":"info","event":"","chan":"stdout","logger":"task"}
{"timestamp":"2025-09-01T16:53:09.873543Z","level":"info","event":"Initialized 2 species with 34 total atoms.","chan":"stdout","logger":"task"}
{"timestamp":"2025-09-01T16:53:09.873916Z","level":"info","event":"","chan":"stdout","logger":"task"}
{"timestamp":"2025-09-01T16:53:09.874265Z","level":"info","event":"Folded 1 k-points by 1x1x1 to 1 k-points.","chan":"stdout","logger":"task"}
{"timestamp":"2025-09-01T16:53:09.874628Z","level":"info","event":"","chan":"stdout","logger":"task"}
{"timestamp":"2025-09-01T16:53:09.875037Z","level":"info","event":"---------- Setting up k-points, bands, fillings ----------","chan":"stdout","logger":"task"}
{"timestamp":"2025-09-01T16:53:09.875828Z","level":"info","event":"No reducable k-points.","chan":"stdout","logger":"task"}
{"timestamp":"2025-09-01T16:53:09.876271Z","level":"info","event":"Computing the number of bands and number of electrons","chan":"stdout","logger":"task"}
{"timestamp":"2025-09-01T16:53:09.876680Z","level":"info","event":"Calculating initial fillings.","chan":"stdout","logger":"task"}
{"timestamp":"2025-09-01T16:53:09.877057Z","level":"info","event":"nElectrons: 287.900000   nBands: 208   nStates: 1","chan":"stdout","logger":"task"}
{"timestamp":"2025-09-01T16:53:09.881227Z","level":"info","event":"","chan":"stdout","logger":"task"}
{"timestamp":"2025-09-01T16:53:09.881741Z","level":"info","event":"----- Setting up reduced wavefunction bases (one per k-point) -----","chan":"stdout","logger":"task"}
{"timestamp":"2025-09-01T16:53:09.882037Z","level":"info","event":"average nbasis = 4602.000 , ideal nbasis = 4595.882","chan":"stdout","logger":"task"}
{"timestamp":"2025-09-01T16:53:13.373300Z","level":"info","event":"","chan":"stdout","logger":"task"}
{"timestamp":"2025-09-01T16:53:13.377507Z","level":"info","event":"Initializing DFT-D2 calculator for fluid / solvation:","chan":"stdout","logger":"task"}
{"timestamp":"2025-09-01T16:53:13.377914Z","level":"info","event":"\t V:  C6:  187.33 Eh-a0^6  R0: 2.952 a0","chan":"stdout","logger":"task"}
{"timestamp":"2025-09-01T16:53:13.378285Z","level":"info","event":"\t O:  C6:   12.14 Eh-a0^6  R0: 2.536 a0","chan":"stdout","logger":"task"}
{"timestamp":"2025-09-01T16:53:13.378659Z","level":"info","event":"","chan":"stdout","logger":"task"}
{"timestamp":"2025-09-01T16:53:13.379216Z","level":"info","event":"---------- Setting up ewald sum ----------","chan":"stdout","logger":"task"}
{"timestamp":"2025-09-01T16:53:13.379649Z","level":"info","event":"Optimum gaussian width for ewald sums = 4.465986 bohr.","chan":"stdout","logger":"task"}
{"timestamp":"2025-09-01T16:53:13.380012Z","level":"info","event":"Real space sum over 1365 unit cells with max indices [  6  7  3  ]","chan":"stdout","logger":"task"}
{"timestamp":"2025-09-01T16:53:13.380729Z","level":"info","event":"Reciprocal space sum over 17595 terms with max indices [  7  8  34  ]","chan":"stdout","logger":"task"}
{"timestamp":"2025-09-01T16:53:13.381274Z","level":"info","event":"","chan":"stdout","logger":"task"}
{"timestamp":"2025-09-01T16:53:13.381769Z","level":"info","event":"---------- Allocating electronic variables ----------","chan":"stdout","logger":"task"}
{"timestamp":"2025-09-01T16:54:03.402258Z","level":"info","event":"Initializing wave functions:  linear combination of atomic orbitals","chan":"stdout","logger":"task"}
{"timestamp":"2025-09-01T16:54:03.404267Z","level":"info","event":"V pseudo-atom occupations:   s ( 2 0 )  p ( 6 )  d ( 5 )","chan":"stdout","logger":"task"}
{"timestamp":"2025-09-01T16:54:03.409237Z","level":"info","event":"O pseudo-atom occupations:   s ( 2 )  p ( 4 )","chan":"stdout","logger":"task"}
{"timestamp":"2025-09-01T16:54:03.413848Z","level":"info","event":"\tFillingsUpdate:  mu: +0.251025827  nElectrons: 287.900000","chan":"stdout","logger":"task"}
{"timestamp":"2025-09-01T16:54:03.423076Z","level":"info","event":"LCAOMinimize: Iter:   0  F: -1028.7884046315236901  |grad|_K:  8.336e-02  alpha:  1.000e+00","chan":"stdout","logger":"task"}
{"timestamp":"2025-09-01T16:54:29.607175Z","level":"info","event":"\tFillingsUpdate:  mu: +0.579378701  nElectrons: 287.900000","chan":"stdout","logger":"task"}
{"timestamp":"2025-09-01T16:54:29.607718Z","level":"info","event":"LCAOMinimize: Iter:   1  F: -1064.3347954899991237  |grad|_K:  9.025e-02  alpha:  3.927e-01  linmin:  3.149e-02  cgtest: -1.184e+00  t[s]:     80.38","chan":"stdout","logger":"task"}
{"timestamp":"2025-09-01T16:54:56.235484Z","level":"info","event":"\tFillingsUpdate:  mu: +0.437527767  nElectrons: 287.900000","chan":"stdout","logger":"task"}
{"timestamp":"2025-09-01T16:54:56.236416Z","level":"info","event":"LCAOMinimize: Iter:   2  F: -1077.1542047313002968  |grad|_K:  1.501e-01  alpha:  1.417e-01  linmin: -4.795e-02  cgtest: -2.450e-01  t[s]:    107.01","chan":"stdout","logger":"task"}
{"timestamp":"2025-09-01T16:55:22.180632Z","level":"info","event":"\tFillingsUpdate:  mu: +0.031933384  nElectrons: 287.900000","chan":"stdout","logger":"task"}
{"timestamp":"2025-09-01T16:55:22.185285Z","level":"info","event":"LCAOMinimize: Iter:   3  F: -1093.4873722708357491  |grad|_K:  3.556e-02  alpha:  6.368e-02  linmin:  6.220e-02  cgtest: -1.716e-01  t[s]:    132.95","chan":"stdout","logger":"task"}
{"timestamp":"2025-09-01T16:55:45.655928Z","level":"info","event":"\tFillingsUpdate:  mu: +0.050263005  nElectrons: 287.900000","chan":"stdout","logger":"task"}
{"timestamp":"2025-09-01T16:55:45.656566Z","level":"info","event":"LCAOMinimize: Iter:   4  F: -1095.1104980344014166  |grad|_K:  2.292e-02  alpha:  8.322e-02  linmin: -6.512e-02  cgtest:  1.432e+00  t[s]:    156.43","chan":"stdout","logger":"task"}
{"timestamp":"2025-09-01T16:55:45.656900Z","level":"info","event":"LCAOMinimize: Encountered beta<0, resetting CG.","chan":"stdout","logger":"task"}
{"timestamp":"2025-09-01T16:55:52.170789Z","level":"info","event":"LCAOMinimize: \tPredicted alpha/alphaT>3.000000, increasing alphaT to 2.496629e-01.","chan":"stdout","logger":"task"}
{"timestamp":"2025-09-01T16:56:15.040310Z","level":"info","event":"\tFillingsUpdate:  mu: -0.223894812  nElectrons: 287.900000","chan":"stdout","logger":"task"}
{"timestamp":"2025-09-01T16:56:15.041027Z","level":"info","event":"LCAOMinimize: Iter:   5  F: -1112.5220724283719846  |grad|_K:  4.517e-02  alpha:  6.056e-01  linmin: -5.687e-03  cgtest:  3.786e-02  t[s]:    185.81","chan":"stdout","logger":"task"}
{"timestamp":"2025-09-01T16:56:37.097108Z","level":"info","event":"LCAOMinimize: \tStep increased F by 9.284316e+01, reducing alpha to 8.110484e-03.","chan":"stdout","logger":"task"}
{"timestamp":"2025-09-01T16:56:56.404404Z","level":"info","event":"\tFillingsUpdate:  mu: -0.261288223  nElectrons: 287.900000","chan":"stdout","logger":"task"}
{"timestamp":"2025-09-01T16:56:56.405044Z","level":"info","event":"LCAOMinimize: Iter:   6  F: -1112.5903219293529673  |grad|_K:  4.635e-02  alpha:  8.110e-03  linmin:  1.871e-02  cgtest:  7.627e-01  t[s]:    227.18","chan":"stdout","logger":"task"}
{"timestamp":"2025-09-01T16:57:01.650833Z","level":"info","event":"LCAOMinimize: \tPredicted alpha/alphaT>3.000000, increasing alphaT to 2.433145e-02.","chan":"stdout","logger":"task"}
{"timestamp":"2025-09-01T16:57:25.270353Z","level":"info","event":"\tFillingsUpdate:  mu: -0.348733039  nElectrons: 287.900000","chan":"stdout","logger":"task"}
{"timestamp":"2025-09-01T16:57:25.271160Z","level":"info","event":"LCAOMinimize: Iter:   7  F: -1113.1320453710829952  |grad|_K:  5.490e-02  alpha:  4.045e-02  linmin:  8.231e-02  cgtest:  4.667e-01  t[s]:    256.04","chan":"stdout","logger":"task"}
{"timestamp":"2025-09-01T16:57:49.158193Z","level":"info","event":"\tFillingsUpdate:  mu: -0.346790924  nElectrons: 287.900000","chan":"stdout","logger":"task"}
{"timestamp":"2025-09-01T16:57:49.158799Z","level":"info","event":"LCAOMinimize: Iter:   8  F: -1113.1969887692962402  |grad|_K:  5.574e-02  alpha:  2.559e-03  linmin: -1.205e-02  cgtest:  9.853e-01  t[s]:    279.93","chan":"stdout","logger":"task"}
{"timestamp":"2025-09-01T16:57:54.958501Z","level":"info","event":"LCAOMinimize: \tPredicted alpha/alphaT>3.000000, increasing alphaT to 7.678046e-03.","chan":"stdout","logger":"task"}
{"timestamp":"2025-09-01T16:58:01.338658Z","level":"info","event":"LCAOMinimize: \tPredicted alpha/alphaT>3.000000, increasing alphaT to 2.303414e-02.","chan":"stdout","logger":"task"}
{"timestamp":"2025-09-01T16:58:07.726009Z","level":"info","event":"LCAOMinimize: \tPredicted alpha/alphaT>3.000000, increasing alphaT to 6.910241e-02.","chan":"stdout","logger":"task"}
{"timestamp":"2025-09-01T16:58:24.186540Z","level":"info","event":"\tFillingsUpdate:  mu: -0.118806678  nElectrons: 287.900000","chan":"stdout","logger":"task"}
{"timestamp":"2025-09-01T16:58:24.186924Z","level":"info","event":"LCAOMinimize: Iter:   9  F: -1119.8517996675579980  |grad|_K:  3.600e-02  alpha:  8.332e-02  linmin: -2.467e-02  cgtest:  6.259e-02  t[s]:    314.96","chan":"stdout","logger":"task"}
{"timestamp":"2025-09-01T16:58:49.932337Z","level":"info","event":"\tFillingsUpdate:  mu: -0.031207775  nElectrons: 287.900000","chan":"stdout","logger":"task"}
{"timestamp":"2025-09-01T16:58:49.942039Z","level":"info","event":"LCAOMinimize: Iter:  10  F: -1120.7551240609848264  |grad|_K:  2.116e-02  alpha:  3.709e-02  linmin:  6.362e-02  cgtest: -5.528e-02  t[s]:    340.71","chan":"stdout","logger":"task"}
{"timestamp":"2025-09-01T16:59:14.358966Z","level":"info","event":"\tFillingsUpdate:  mu: +0.002402878  nElectrons: 287.900000","chan":"stdout","logger":"task"}
{"timestamp":"2025-09-01T16:59:14.359823Z","level":"info","event":"LCAOMinimize: Iter:  11  F: -1121.1912885291114890  |grad|_K:  1.674e-02  alpha:  5.913e-02  linmin:  3.900e-04  cgtest:  5.988e-01  t[s]:    365.13","chan":"stdout","logger":"task"}
{"timestamp":"2025-09-01T16:59:37.387804Z","level":"info","event":"\tFillingsUpdate:  mu: +0.008428242  nElectrons: 287.900000","chan":"stdout","logger":"task"}
{"timestamp":"2025-09-01T16:59:37.396244Z","level":"info","event":"LCAOMinimize: Iter:  12  F: -1121.4998875806900287  |grad|_K:  7.202e-03  alpha:  4.826e-02  linmin:  3.694e-02  cgtest: -1.566e-01  t[s]:    388.16","chan":"stdout","logger":"task"}
{"timestamp":"2025-09-01T16:59:59.660670Z","level":"info","event":"\tFillingsUpdate:  mu: +0.013008286  nElectrons: 287.900000","chan":"stdout","logger":"task"}
{"timestamp":"2025-09-01T16:59:59.662325Z","level":"info","event":"LCAOMinimize: Iter:  13  F: -1121.5686632142421786  |grad|_K:  3.824e-03  alpha:  6.638e-02  linmin:  2.277e-03  cgtest:  2.073e-01  t[s]:    410.44","chan":"stdout","logger":"task"}
{"timestamp":"2025-09-01T17:00:23.612711Z","level":"info","event":"\tFillingsUpdate:  mu: +0.016370761  nElectrons: 287.900000","chan":"stdout","logger":"task"}
{"timestamp":"2025-09-01T17:00:23.613669Z","level":"info","event":"LCAOMinimize: Iter:  14  F: -1121.5919109409892371  |grad|_K:  2.822e-03  alpha:  7.298e-02  linmin: -1.565e-03  cgtest:  1.526e-02  t[s]:    434.39","chan":"stdout","logger":"task"}
{"timestamp":"2025-09-01T17:00:45.334147Z","level":"info","event":"\tFillingsUpdate:  mu: +0.019673052  nElectrons: 287.900000","chan":"stdout","logger":"task"}
{"timestamp":"2025-09-01T17:00:45.342258Z","level":"info","event":"LCAOMinimize: Iter:  15  F: -1121.6044588366626158  |grad|_K:  2.188e-03  alpha:  7.177e-02  linmin: -4.445e-04  cgtest:  2.308e-03  t[s]:    456.11","chan":"stdout","logger":"task"}
{"timestamp":"2025-09-01T17:01:08.241205Z","level":"info","event":"\tFillingsUpdate:  mu: +0.023279446  nElectrons: 287.900000","chan":"stdout","logger":"task"}
{"timestamp":"2025-09-01T17:01:08.242248Z","level":"info","event":"LCAOMinimize: Iter:  16  F: -1121.6123479877762747  |grad|_K:  1.343e-03  alpha:  7.526e-02  linmin: -2.408e-04  cgtest:  2.869e-02  t[s]:    479.02","chan":"stdout","logger":"task"}
{"timestamp":"2025-09-01T17:01:30.475141Z","level":"info","event":"\tFillingsUpdate:  mu: +0.021308902  nElectrons: 287.900000","chan":"stdout","logger":"task"}
{"timestamp":"2025-09-01T17:01:30.476027Z","level":"info","event":"LCAOMinimize: Iter:  17  F: -1121.6164593122487076  |grad|_K:  9.683e-04  alpha:  1.041e-01  linmin: -8.911e-04  cgtest:  1.412e-02  t[s]:    501.25","chan":"stdout","logger":"task"}
{"timestamp":"2025-09-01T17:01:52.572165Z","level":"info","event":"\tFillingsUpdate:  mu: +0.021122126  nElectrons: 287.900000","chan":"stdout","logger":"task"}
{"timestamp":"2025-09-01T17:01:52.572571Z","level":"info","event":"LCAOMinimize: Iter:  18  F: -1121.6181908297348855  |grad|_K:  1.072e-03  alpha:  8.407e-02  linmin:  1.432e-04  cgtest: -5.759e-03  t[s]:    523.35","chan":"stdout","logger":"task"}
{"timestamp":"2025-09-01T17:02:14.895175Z","level":"info","event":"\tFillingsUpdate:  mu: +0.023280768  nElectrons: 287.900000","chan":"stdout","logger":"task"}
{"timestamp":"2025-09-01T17:02:14.895917Z","level":"info","event":"LCAOMinimize: Iter:  19  F: -1121.6206529360181321  |grad|_K:  5.263e-04  alpha:  9.847e-02  linmin:  1.870e-03  cgtest:  2.505e-02  t[s]:    545.67","chan":"stdout","logger":"task"}
{"timestamp":"2025-09-01T17:02:36.166999Z","level":"info","event":"\tFillingsUpdate:  mu: +0.023022322  nElectrons: 287.900000","chan":"stdout","logger":"task"}
{"timestamp":"2025-09-01T17:02:36.167575Z","level":"info","event":"LCAOMinimize: Iter:  20  F: -1121.6212315367135943  |grad|_K:  3.968e-04  alpha:  9.654e-02  linmin:  2.184e-04  cgtest:  1.511e-02  t[s]:    566.94","chan":"stdout","logger":"task"}
{"timestamp":"2025-09-01T17:02:39.301884Z","level":"info","event":"LCAOMinimize: None of the convergence criteria satisfied after 20 iterations.","chan":"stdout","logger":"task"}
{"timestamp":"2025-09-01T17:02:39.302381Z","level":"info","event":"----- createFluidSolver() ----- (Fluid-side solver setup)","chan":"stdout","logger":"task"}
{"timestamp":"2025-09-01T17:02:39.302907Z","level":"info","event":"   Initializing fluid molecule 'H2O'","chan":"stdout","logger":"task"}
{"timestamp":"2025-09-01T17:02:39.303311Z","level":"info","event":"     Initializing site 'O'","chan":"stdout","logger":"task"}
{"timestamp":"2025-09-01T17:02:39.304183Z","level":"info","event":"       Electron density: proportional to exp(-r/0.36935)*erfc((r-0.51523)/0.36823) with norm 6.826","chan":"stdout","logger":"task"}
{"timestamp":"2025-09-01T17:02:39.304500Z","level":"info","event":"       Charge density: gaussian nuclear width 0.478731 with net site charge 0.826","chan":"stdout","logger":"task"}
{"timestamp":"2025-09-01T17:02:39.304892Z","level":"info","event":"       Polarizability: cuspless exponential with width 0.32 and norm 3.73","chan":"stdout","logger":"task"}
{"timestamp":"2025-09-01T17:02:39.305335Z","level":"info","event":"       Hard sphere radius: 2.57003 bohrs","chan":"stdout","logger":"task"}
{"timestamp":"2025-09-01T17:02:39.305690Z","level":"info","event":"       Positions in reference frame:","chan":"stdout","logger":"task"}
{"timestamp":"2025-09-01T17:02:39.306777Z","level":"info","event":"         [ +0.000000 +0.000000 +0.000000 ]","chan":"stdout","logger":"task"}
{"timestamp":"2025-09-01T17:02:39.307129Z","level":"info","event":"     Initializing site 'H'","chan":"stdout","logger":"task"}
{"timestamp":"2025-09-01T17:02:39.313662Z","level":"info","event":"       Electron density: proportional to exp(-r/0.34641)*erfc((r-0)/0.390882) with norm 0.587","chan":"stdout","logger":"task"}
{"timestamp":"2025-09-01T17:02:39.314310Z","level":"info","event":"       Charge density: gaussian nuclear width 0.377945 with net site charge -0.413","chan":"stdout","logger":"task"}
{"timestamp":"2025-09-01T17:02:39.314981Z","level":"info","event":"       Polarizability: cuspless exponential with width 0.39 and norm 3.3","chan":"stdout","logger":"task"}
{"timestamp":"2025-09-01T17:02:39.315409Z","level":"info","event":"       Positions in reference frame:","chan":"stdout","logger":"task"}
{"timestamp":"2025-09-01T17:02:39.315951Z","level":"info","event":"         [ +0.000000 -1.441945 +1.122523 ]","chan":"stdout","logger":"task"}
{"timestamp":"2025-09-01T17:02:39.316583Z","level":"info","event":"         [ +0.000000 +1.441945 +1.122523 ]","chan":"stdout","logger":"task"}
{"timestamp":"2025-09-01T17:02:39.316915Z","level":"info","event":"     Net charge: 0   dipole magnitude: 0.927204","chan":"stdout","logger":"task"}
{"timestamp":"2025-09-01T17:02:39.317247Z","level":"info","event":"     Initializing spherical shell mfKernel with radius 2.61727 Bohr","chan":"stdout","logger":"task"}
{"timestamp":"2025-09-01T17:02:39.317661Z","level":"info","event":"     deltaS corrections:","chan":"stdout","logger":"task"}
{"timestamp":"2025-09-01T17:02:39.318675Z","level":"info","event":"       site 'O': -7.54299","chan":"stdout","logger":"task"}
{"timestamp":"2025-09-01T17:02:39.320461Z","level":"info","event":"       site 'H': -6.83917","chan":"stdout","logger":"task"}
{"timestamp":"2025-09-01T17:02:39.323399Z","level":"info","event":"   Initializing fluid molecule 'Na+'","chan":"stdout","logger":"task"}
{"timestamp":"2025-09-01T17:02:39.323795Z","level":"info","event":"     Initializing site 'Na'","chan":"stdout","logger":"task"}
{"timestamp":"2025-09-01T17:02:39.324128Z","level":"info","event":"       Electron density: proportional to exp(-r/0.19682)*erfc((r-0.71491)/0.41314) with norm 8.1383","chan":"stdout","logger":"task"}
{"timestamp":"2025-09-01T17:02:39.324431Z","level":"info","event":"       Charge density: gaussian nuclear width 0.365347 with net site charge -1","chan":"stdout","logger":"task"}
{"timestamp":"2025-09-01T17:02:39.324718Z","level":"info","event":"       Hard sphere radius: 1.86327 bohrs","chan":"stdout","logger":"task"}
{"timestamp":"2025-09-01T17:02:39.325010Z","level":"info","event":"       Positions in reference frame:","chan":"stdout","logger":"task"}
{"timestamp":"2025-09-01T17:02:39.325355Z","level":"info","event":"         [ +0.000000 +0.000000 +0.000000 ]","chan":"stdout","logger":"task"}
{"timestamp":"2025-09-01T17:02:39.325689Z","level":"info","event":"     Net charge: -1   dipole magnitude: 0","chan":"stdout","logger":"task"}
{"timestamp":"2025-09-01T17:02:39.326025Z","level":"info","event":"     Initializing gaussian mfKernel with width: 1.55004 Bohr","chan":"stdout","logger":"task"}
{"timestamp":"2025-09-01T17:02:39.326461Z","level":"info","event":"     deltaS corrections:","chan":"stdout","logger":"task"}
{"timestamp":"2025-09-01T17:02:39.326788Z","level":"info","event":"       site 'Na': -22.3555","chan":"stdout","logger":"task"}
{"timestamp":"2025-09-01T17:02:39.327114Z","level":"info","event":"   Initializing fluid molecule 'F-'","chan":"stdout","logger":"task"}
{"timestamp":"2025-09-01T17:02:39.327428Z","level":"info","event":"     Initializing site 'F'","chan":"stdout","logger":"task"}
{"timestamp":"2025-09-01T17:02:39.328285Z","level":"info","event":"       Electron density: proportional to exp(-r/0.38886)*erfc((r-0)/0.438782) with norm 8","chan":"stdout","logger":"task"}
{"timestamp":"2025-09-01T17:02:39.328633Z","level":"info","event":"       Charge density: gaussian nuclear width 0.374796 with net site charge 1","chan":"stdout","logger":"task"}
{"timestamp":"2025-09-01T17:02:39.328974Z","level":"info","event":"       Hard sphere radius: 2.39995 bohrs","chan":"stdout","logger":"task"}
{"timestamp":"2025-09-01T17:02:39.336214Z","level":"info","event":"       Positions in reference frame:","chan":"stdout","logger":"task"}
{"timestamp":"2025-09-01T17:02:39.339829Z","level":"info","event":"         [ +0.000000 +0.000000 +0.000000 ]","chan":"stdout","logger":"task"}
{"timestamp":"2025-09-01T17:02:39.340255Z","level":"info","event":"     Net charge: 1   dipole magnitude: 0","chan":"stdout","logger":"task"}
{"timestamp":"2025-09-01T17:02:39.341568Z","level":"info","event":"     Initializing gaussian mfKernel with width: 1.59012 Bohr","chan":"stdout","logger":"task"}
{"timestamp":"2025-09-01T17:02:39.343451Z","level":"info","event":"     deltaS corrections:","chan":"stdout","logger":"task"}
{"timestamp":"2025-09-01T17:02:39.353569Z","level":"info","event":"       site 'F': -9.04335","chan":"stdout","logger":"task"}
{"timestamp":"2025-09-01T17:02:39.361558Z","level":"info","event":"","chan":"stdout","logger":"task"}
{"timestamp":"2025-09-01T17:02:39.361864Z","level":"info","event":"Correction to mu due to finite nuclear width = -0.13281","chan":"stdout","logger":"task"}
{"timestamp":"2025-09-01T17:02:39.362092Z","level":"info","event":"   Cavity determined by nc: 0.00142 and sigma: 0.707107","chan":"stdout","logger":"task"}
{"timestamp":"2025-09-01T17:02:39.362295Z","level":"info","event":"   Nonlocal vdW cavity from gaussian model electron density with norm = 8 and sigma = 0.993594 bohr","chan":"stdout","logger":"task"}
{"timestamp":"2025-09-01T17:02:39.362541Z","level":"info","event":"   Charge asymmetry in cavity with sensitivity pCavity = 36.5 e-bohr/Eh","chan":"stdout","logger":"task"}
{"timestamp":"2025-09-01T17:02:39.362771Z","level":"info","event":"   Electrostatic cavity expanded by eta = 1.46 bohrs","chan":"stdout","logger":"task"}
{"timestamp":"2025-09-01T17:02:39.363033Z","level":"info","event":"   Weighted density cavitation model constrained by Nbulk: 0.0049383 bohr^-3, Pvap: 3.14029 kPa, Rvdw: 2.61727 bohr and sigmaBulk: 4.62e-05 Eh/bohr^2 at T: 298 K.","chan":"stdout","logger":"task"}
{"timestamp":"2025-09-01T17:02:39.363368Z","level":"info","event":"   Weighted density dispersion model using vdW pair potentials with single solvent site with sqrtC6eff: 0.77 SI.","chan":"stdout","logger":"task"}
{"timestamp":"2025-09-01T17:02:39.363571Z","level":"info","event":"","chan":"stdout","logger":"task"}
{"timestamp":"2025-09-01T17:02:39.363828Z","level":"info","event":"","chan":"stdout","logger":"task"}
{"timestamp":"2025-09-01T17:02:39.365309Z","level":"info","event":"---- Citations for features of the code used in this run ----","chan":"stdout","logger":"task"}
{"timestamp":"2025-09-01T17:02:39.369529Z","level":"info","event":"","chan":"stdout","logger":"task"}
{"timestamp":"2025-09-01T17:02:39.369986Z","level":"info","event":"   Software package:","chan":"stdout","logger":"task"}
{"timestamp":"2025-09-01T17:02:39.370347Z","level":"info","event":"      R. Sundararaman, K. Letchworth-Weaver, K.A. Schwarz, D. Gunceler, Y. Ozhabes and T.A. Arias, 'JDFTx: software for joint density-functional theory', SoftwareX 6, 278 (2017)","chan":"stdout","logger":"task"}
{"timestamp":"2025-09-01T17:02:39.374002Z","level":"info","event":"","chan":"stdout","logger":"task"}
{"timestamp":"2025-09-01T17:02:39.374403Z","level":"info","event":"   gga-PBE exchange-correlation functional:","chan":"stdout","logger":"task"}
{"timestamp":"2025-09-01T17:02:39.374825Z","level":"info","event":"      J.P. Perdew, K. Burke and M. Ernzerhof, Phys. Rev. Lett. 77, 3865 (1996)","chan":"stdout","logger":"task"}
{"timestamp":"2025-09-01T17:02:39.375258Z","level":"info","event":"","chan":"stdout","logger":"task"}
{"timestamp":"2025-09-01T17:02:39.375617Z","level":"info","event":"   Pseudopotentials:","chan":"stdout","logger":"task"}
{"timestamp":"2025-09-01T17:02:39.375991Z","level":"info","event":"      KF Garrity, JW Bennett, KM Rabe and D Vanderbilt, Comput. Mater. Sci. 81, 446 (2014)","chan":"stdout","logger":"task"}
{"timestamp":"2025-09-01T17:02:39.376312Z","level":"info","event":"","chan":"stdout","logger":"task"}
{"timestamp":"2025-09-01T17:02:39.377098Z","level":"info","event":"   DFT-D2 dispersion correction:","chan":"stdout","logger":"task"}
{"timestamp":"2025-09-01T17:02:39.377439Z","level":"info","event":"      S. Grimme, J. Comput. Chem. 27, 1787 (2006)","chan":"stdout","logger":"task"}
{"timestamp":"2025-09-01T17:02:39.377817Z","level":"info","event":"","chan":"stdout","logger":"task"}
{"timestamp":"2025-09-01T17:02:39.378184Z","level":"info","event":"   Charge-asymmetric nonlocally-determined local-electric (CANDLE) solvation model:","chan":"stdout","logger":"task"}
{"timestamp":"2025-09-01T17:02:39.378515Z","level":"info","event":"      R. Sundararaman and W.A. Goddard III, J. Chem. Phys. 142, 064107 (2015)","chan":"stdout","logger":"task"}
{"timestamp":"2025-09-01T17:02:39.378890Z","level":"info","event":"","chan":"stdout","logger":"task"}
{"timestamp":"2025-09-01T17:02:39.379247Z","level":"info","event":"   Total energy minimization with Auxiliary Hamiltonian:","chan":"stdout","logger":"task"}
{"timestamp":"2025-09-01T17:02:39.379624Z","level":"info","event":"      C. Freysoldt, S. Boeck, and J. Neugebauer, Phys. Rev. B 79, 241103(R) (2009)","chan":"stdout","logger":"task"}
{"timestamp":"2025-09-01T17:02:39.384527Z","level":"info","event":"","chan":"stdout","logger":"task"}
{"timestamp":"2025-09-01T17:02:39.384945Z","level":"info","event":"This list may not be complete. Please suggest additional citations or","chan":"stdout","logger":"task"}
{"timestamp":"2025-09-01T17:02:39.385216Z","level":"info","event":"report any other bugs at https://github.com/shankar1729/jdftx/issues","chan":"stdout","logger":"task"}
{"timestamp":"2025-09-01T17:02:39.385451Z","level":"info","event":"","chan":"stdout","logger":"task"}
{"timestamp":"2025-09-01T17:02:39.385689Z","level":"info","event":"Initialization completed successfully at t[s]:    570.08","chan":"stdout","logger":"task"}
{"timestamp":"2025-09-01T17:02:39.385965Z","level":"info","event":"","chan":"stdout","logger":"task"}
{"timestamp":"2025-09-01T17:02:40.109701Z","level":"info","event":"Fluid solver invoked on fresh (random / LCAO) wavefunctions","chan":"stdout","logger":"task"}
{"timestamp":"2025-09-01T17:02:40.113576Z","level":"info","event":"Running a vacuum solve first:","chan":"stdout","logger":"task"}
{"timestamp":"2025-09-01T17:02:40.113910Z","level":"info","event":"","chan":"stdout","logger":"task"}
{"timestamp":"2025-09-01T17:02:40.115158Z","level":"info","event":"-------- Initial electronic minimization -----------","chan":"stdout","logger":"task"}
{"timestamp":"2025-09-01T17:02:56.889895Z","level":"info","event":"\tFillingsUpdate:  mu: +0.023022326  nElectrons: 287.900000","chan":"stdout","logger":"task"}
{"timestamp":"2025-09-01T17:02:56.892635Z","level":"info","event":"ElecMinimize: Iter:   0  F: -1121.621231536711093  |grad|_K:  1.703e-03  alpha:  1.000e+00","chan":"stdout","logger":"task"}
{"timestamp":"2025-09-01T17:03:23.051502Z","level":"info","event":"\tFillingsUpdate:  mu: +0.036623714  nElectrons: 287.900000","chan":"stdout","logger":"task"}
{"timestamp":"2025-09-01T17:03:23.069096Z","level":"info","event":"\tSubspaceRotationAdjust: set factor to 0.767","chan":"stdout","logger":"task"}
{"timestamp":"2025-09-01T17:03:23.069747Z","level":"info","event":"ElecMinimize: Iter:   1  F: -1122.946377138800017  |grad|_K:  1.237e-03  alpha:  4.723e-01  linmin:  4.272e-05  t[s]:    613.84","chan":"stdout","logger":"task"}
{"timestamp":"2025-09-01T17:03:48.413666Z","level":"info","event":"\tFillingsUpdate:  mu: +0.005874507  nElectrons: 287.900000","chan":"stdout","logger":"task"}
{"timestamp":"2025-09-01T17:03:48.438464Z","level":"info","event":"\tSubspaceRotationAdjust: set factor to 0.504","chan":"stdout","logger":"task"}
{"timestamp":"2025-09-01T17:03:48.440569Z","level":"info","event":"ElecMinimize: Iter:   2  F: -1123.042462464852861  |grad|_K:  1.384e-03  alpha:  8.032e-02  linmin:  4.520e-04  t[s]:    639.21","chan":"stdout","logger":"task"}
{"timestamp":"2025-09-01T17:04:12.470032Z","level":"info","event":"\tFillingsUpdate:  mu: -0.007639283  nElectrons: 287.900000","chan":"stdout","logger":"task"}
{"timestamp":"2025-09-01T17:04:12.477892Z","level":"info","event":"\tSubspaceRotationAdjust: set factor to 0.343","chan":"stdout","logger":"task"}
{"timestamp":"2025-09-01T17:04:12.478382Z","level":"info","event":"ElecMinimize: Iter:   3  F: -1123.322380212325925  |grad|_K:  9.388e-04  alpha:  1.815e-01  linmin: -9.073e-05  t[s]:    663.25","chan":"stdout","logger":"task"}
{"timestamp":"2025-09-01T17:04:38.155782Z","level":"info","event":"\tFillingsUpdate:  mu: +0.002978395  nElectrons: 287.900000","chan":"stdout","logger":"task"}
{"timestamp":"2025-09-01T17:04:38.164601Z","level":"info","event":"\tSubspaceRotationAdjust: set factor to 0.245","chan":"stdout","logger":"task"}
{"timestamp":"2025-09-01T17:04:38.165168Z","level":"info","event":"ElecMinimize: Iter:   4  F: -1123.390216507502828  |grad|_K:  5.535e-04  alpha:  7.509e-02  linmin: -8.556e-06  t[s]:    688.94","chan":"stdout","logger":"task"}
{"timestamp":"2025-09-01T17:04:44.623026Z","level":"info","event":"ElecMinimize: \tPredicted alpha/alphaT>3.000000, increasing alphaT to 2.252797e-01.","chan":"stdout","logger":"task"}
{"timestamp":"2025-09-01T17:05:08.884552Z","level":"info","event":"\tFillingsUpdate:  mu: -0.008370302  nElectrons: 287.900000","chan":"stdout","logger":"task"}
{"timestamp":"2025-09-01T17:05:08.898456Z","level":"info","event":"\tSubspaceRotationAdjust: set factor to 0.17","chan":"stdout","logger":"task"}
{"timestamp":"2025-09-01T17:05:08.899290Z","level":"info","event":"ElecMinimize: Iter:   5  F: -1123.463047119887051  |grad|_K:  5.258e-04  alpha:  2.421e-01  linmin:  1.173e-05  t[s]:    719.67","chan":"stdout","logger":"task"}
{"timestamp":"2025-09-01T17:05:32.869648Z","level":"info","event":"\tFillingsUpdate:  mu: -0.002822105  nElectrons: 287.900000","chan":"stdout","logger":"task"}
{"timestamp":"2025-09-01T17:05:32.886558Z","level":"info","event":"\tSubspaceRotationAdjust: set factor to 0.174","chan":"stdout","logger":"task"}
{"timestamp":"2025-09-01T17:05:32.888627Z","level":"info","event":"ElecMinimize: Iter:   6  F: -1123.510161518899167  |grad|_K:  3.581e-04  alpha:  1.743e-01  linmin:  7.371e-06  t[s]:    743.66","chan":"stdout","logger":"task"}
{"timestamp":"2025-09-01T17:05:58.581769Z","level":"info","event":"\tFillingsUpdate:  mu: +0.000125240  nElectrons: 287.900000","chan":"stdout","logger":"task"}
{"timestamp":"2025-09-01T17:05:58.588110Z","level":"info","event":"\tSubspaceRotationAdjust: set factor to 0.2","chan":"stdout","logger":"task"}
{"timestamp":"2025-09-01T17:05:58.588505Z","level":"info","event":"ElecMinimize: Iter:   7  F: -1123.542670946472299  |grad|_K:  2.716e-04  alpha:  2.591e-01  linmin: -1.188e-05  t[s]:    769.36","chan":"stdout","logger":"task"}
{"timestamp":"2025-09-01T17:06:25.746586Z","level":"info","event":"\tFillingsUpdate:  mu: +0.002285902  nElectrons: 287.900000","chan":"stdout","logger":"task"}
{"timestamp":"2025-09-01T17:06:25.762787Z","level":"info","event":"\tSubspaceRotationAdjust: set factor to 0.201","chan":"stdout","logger":"task"}
{"timestamp":"2025-09-01T17:06:25.763736Z","level":"info","event":"ElecMinimize: Iter:   8  F: -1123.557567477994326  |grad|_K:  2.143e-04  alpha:  2.056e-01  linmin:  5.136e-05  t[s]:    796.54","chan":"stdout","logger":"task"}
{"timestamp":"2025-09-01T17:06:52.110870Z","level":"info","event":"\tFillingsUpdate:  mu: +0.003438607  nElectrons: 287.900000","chan":"stdout","logger":"task"}
{"timestamp":"2025-09-01T17:06:52.133450Z","level":"info","event":"\tSubspaceRotationAdjust: set factor to 0.185","chan":"stdout","logger":"task"}
{"timestamp":"2025-09-01T17:06:52.135449Z","level":"info","event":"ElecMinimize: Iter:   9  F: -1123.570306051768284  |grad|_K:  1.862e-04  alpha:  2.849e-01  linmin:  3.042e-04  t[s]:    822.91","chan":"stdout","logger":"task"}
{"timestamp":"2025-09-01T17:07:17.842232Z","level":"info","event":"\tFillingsUpdate:  mu: +0.006567325  nElectrons: 287.900000","chan":"stdout","logger":"task"}
{"timestamp":"2025-09-01T17:07:17.850719Z","level":"info","event":"\tSubspaceRotationAdjust: set factor to 0.179","chan":"stdout","logger":"task"}
{"timestamp":"2025-09-01T17:07:17.851280Z","level":"info","event":"ElecMinimize: Iter:  10  F: -1123.576197066429813  |grad|_K:  1.279e-04  alpha:  1.743e-01  linmin:  1.898e-05  t[s]:    848.62","chan":"stdout","logger":"task"}
{"timestamp":"2025-09-01T17:07:45.787504Z","level":"info","event":"\tFillingsUpdate:  mu: +0.005932161  nElectrons: 287.900000","chan":"stdout","logger":"task"}
{"timestamp":"2025-09-01T17:07:45.793395Z","level":"info","event":"\tSubspaceRotationAdjust: set factor to 0.151","chan":"stdout","logger":"task"}
{"timestamp":"2025-09-01T17:07:45.794003Z","level":"info","event":"ElecMinimize: Iter:  11  F: -1123.581234620105988  |grad|_K:  1.359e-04  alpha:  3.158e-01  linmin:  3.546e-05  t[s]:    876.57","chan":"stdout","logger":"task"}
{"timestamp":"2025-09-01T17:08:12.319205Z","level":"info","event":"\tFillingsUpdate:  mu: +0.007551962  nElectrons: 287.900000","chan":"stdout","logger":"task"}
{"timestamp":"2025-09-01T17:08:12.327304Z","level":"info","event":"\tSubspaceRotationAdjust: set factor to 0.171","chan":"stdout","logger":"task"}
{"timestamp":"2025-09-01T17:08:12.327866Z","level":"info","event":"ElecMinimize: Iter:  12  F: -1123.585115904704480  |grad|_K:  9.758e-05  alpha:  2.155e-01  linmin:  9.755e-06  t[s]:    903.10","chan":"stdout","logger":"task"}
{"timestamp":"2025-09-01T17:08:38.622845Z","level":"info","event":"\tFillingsUpdate:  mu: +0.005901179  nElectrons: 287.900000","chan":"stdout","logger":"task"}
{"timestamp":"2025-09-01T17:08:38.636168Z","level":"info","event":"\tSubspaceRotationAdjust: set factor to 0.15","chan":"stdout","logger":"task"}
{"timestamp":"2025-09-01T17:08:38.638298Z","level":"info","event":"ElecMinimize: Iter:  13  F: -1123.587615460779944  |grad|_K:  9.456e-05  alpha:  2.691e-01  linmin:  1.666e-05  t[s]:    929.41","chan":"stdout","logger":"task"}
{"timestamp":"2025-09-01T17:09:08.183267Z","level":"info","event":"\tFillingsUpdate:  mu: +0.005997012  nElectrons: 287.900000","chan":"stdout","logger":"task"}
{"timestamp":"2025-09-01T17:09:08.188761Z","level":"info","event":"\tSubspaceRotationAdjust: set factor to 0.198","chan":"stdout","logger":"task"}
{"timestamp":"2025-09-01T17:09:08.189337Z","level":"info","event":"ElecMinimize: Iter:  14  F: -1123.589626063639798  |grad|_K:  7.062e-05  alpha:  2.306e-01  linmin:  7.223e-06  t[s]:    958.96","chan":"stdout","logger":"task"}
{"timestamp":"2025-09-01T17:09:35.695804Z","level":"info","event":"\tFillingsUpdate:  mu: +0.005838288  nElectrons: 287.900000","chan":"stdout","logger":"task"}
{"timestamp":"2025-09-01T17:09:35.710304Z","level":"info","event":"\tSubspaceRotationAdjust: set factor to 0.186","chan":"stdout","logger":"task"}
{"timestamp":"2025-09-01T17:09:35.711043Z","level":"info","event":"ElecMinimize: Iter:  15  F: -1123.590859930395254  |grad|_K:  6.773e-05  alpha:  2.536e-01  linmin:  8.923e-06  t[s]:    986.48","chan":"stdout","logger":"task"}
{"timestamp":"2025-09-01T17:10:06.184554Z","level":"info","event":"\tFillingsUpdate:  mu: +0.006850650  nElectrons: 287.900000","chan":"stdout","logger":"task"}
{"timestamp":"2025-09-01T17:10:06.209432Z","level":"info","event":"\tSubspaceRotationAdjust: set factor to 0.264","chan":"stdout","logger":"task"}
{"timestamp":"2025-09-01T17:10:06.209934Z","level":"info","event":"ElecMinimize: Iter:  16  F: -1123.591922382648590  |grad|_K:  5.005e-05  alpha:  2.374e-01  linmin:  3.352e-06  t[s]:   1016.98","chan":"stdout","logger":"task"}
{"timestamp":"2025-09-01T17:10:33.651302Z","level":"info","event":"\tFillingsUpdate:  mu: +0.007199857  nElectrons: 287.900000","chan":"stdout","logger":"task"}
{"timestamp":"2025-09-01T17:10:33.672637Z","level":"info","event":"\tSubspaceRotationAdjust: set factor to 0.237","chan":"stdout","logger":"task"}
{"timestamp":"2025-09-01T17:10:33.673805Z","level":"info","event":"ElecMinimize: Iter:  17  F: -1123.592536322239539  |grad|_K:  5.105e-05  alpha:  2.509e-01  linmin:  3.781e-06  t[s]:   1044.45","chan":"stdout","logger":"task"}
{"timestamp":"2025-09-01T17:11:00.903519Z","level":"info","event":"\tFillingsUpdate:  mu: +0.007409751  nElectrons: 287.900000","chan":"stdout","logger":"task"}
{"timestamp":"2025-09-01T17:11:00.931207Z","level":"info","event":"\tSubspaceRotationAdjust: set factor to 0.291","chan":"stdout","logger":"task"}
{"timestamp":"2025-09-01T17:11:00.932421Z","level":"info","event":"ElecMinimize: Iter:  18  F: -1123.593078743482010  |grad|_K:  3.455e-05  alpha:  2.130e-01  linmin:  1.826e-06  t[s]:   1071.70","chan":"stdout","logger":"task"}
{"timestamp":"2025-09-01T17:11:25.765571Z","level":"info","event":"\tFillingsUpdate:  mu: +0.007103730  nElectrons: 287.900000","chan":"stdout","logger":"task"}
{"timestamp":"2025-09-01T17:11:25.772870Z","level":"info","event":"\tSubspaceRotationAdjust: set factor to 0.285","chan":"stdout","logger":"task"}
{"timestamp":"2025-09-01T17:11:25.773406Z","level":"info","event":"ElecMinimize: Iter:  19  F: -1123.593407326657143  |grad|_K:  3.449e-05  alpha:  2.816e-01  linmin:  4.025e-06  t[s]:   1096.55","chan":"stdout","logger":"task"}
{"timestamp":"2025-09-01T17:11:50.063788Z","level":"info","event":"\tFillingsUpdate:  mu: +0.006999584  nElectrons: 287.900000","chan":"stdout","logger":"task"}
{"timestamp":"2025-09-01T17:11:50.083401Z","level":"info","event":"\tSubspaceRotationAdjust: set factor to 0.248","chan":"stdout","logger":"task"}
{"timestamp":"2025-09-01T17:11:50.083923Z","level":"info","event":"ElecMinimize: Iter:  20  F: -1123.593604572754884  |grad|_K:  2.529e-05  alpha:  1.694e-01  linmin: -6.721e-07  t[s]:   1120.85","chan":"stdout","logger":"task"}
{"timestamp":"2025-09-01T17:11:50.089762Z","level":"info","event":"ElecMinimize: None of the convergence criteria satisfied after 20 iterations.","chan":"stdout","logger":"task"}
{"timestamp":"2025-09-01T17:11:50.099375Z","level":"info","event":"Setting wave functions to eigenvectors of Hamiltonian","chan":"stdout","logger":"task"}
{"timestamp":"2025-09-01T17:11:50.156817Z","level":"info","event":"Vacuum energy after initial minimize, F = -1123.593604572754884","chan":"stdout","logger":"task"}
{"timestamp":"2025-09-01T17:11:50.157412Z","level":"info","event":"","chan":"stdout","logger":"task"}
{"timestamp":"2025-09-01T17:11:50.161702Z","level":"info","event":"","chan":"stdout","logger":"task"}
{"timestamp":"2025-09-01T17:11:50.162690Z","level":"info","event":"-------- Electronic minimization -----------","chan":"stdout","logger":"task"}
{"timestamp":"2025-09-01T17:12:15.137251Z","level":"info","event":"\tLinear fluid (dielectric constant: 78.4, screening length: 5.74355 Bohr) occupying 0.331565 of unit cell:\tCompleted after 23 iterations at t[s]:   1132.57","chan":"stdout","logger":"task"}
{"timestamp":"2025-09-01T17:12:15.138772Z","level":"info","event":"\tFillingsUpdate:  mu: -0.191695278  nElectrons: 287.900000","chan":"stdout","logger":"task"}
{"timestamp":"2025-09-01T17:12:15.140601Z","level":"info","event":"ElecMinimize: Iter:   0  F: -1123.565223659937828  |grad|_K:  2.620e-04  alpha:  1.000e+00","chan":"stdout","logger":"task"}
{"timestamp":"2025-09-01T17:12:31.829267Z","level":"info","event":"\tLinear fluid (dielectric constant: 78.4, screening length: 5.74355 Bohr) occupying 0.351185 of unit cell:\tCompleted after 22 iterations at t[s]:   1155.02","chan":"stdout","logger":"task"}
{"timestamp":"2025-09-01T17:12:48.075282Z","level":"info","event":"\tLinear fluid (dielectric constant: 78.4, screening length: 5.74355 Bohr) occupying 0.331988 of unit cell:\tCompleted after 21 iterations at t[s]:   1166.01","chan":"stdout","logger":"task"}
{"timestamp":"2025-09-01T17:12:48.075752Z","level":"info","event":"\tFillingsUpdate:  mu: -0.184244427  nElectrons: 287.900000","chan":"stdout","logger":"task"}
{"timestamp":"2025-09-01T17:12:48.096363Z","level":"info","event":"\tSubspaceRotationAdjust: set factor to 0.202","chan":"stdout","logger":"task"}
{"timestamp":"2025-09-01T17:12:48.098761Z","level":"info","event":"ElecMinimize: Iter:   1  F: -1123.577894362689449  |grad|_K:  6.615e-05  alpha:  1.911e-01  linmin:  3.522e-04  t[s]:   1178.87","chan":"stdout","logger":"task"}
{"timestamp":"2025-09-01T17:13:05.347558Z","level":"info","event":"\tLinear fluid (dielectric constant: 78.4, screening length: 5.74355 Bohr) occupying 0.332511 of unit cell:\tCompleted after 15 iterations at t[s]:   1188.25","chan":"stdout","logger":"task"}
{"timestamp":"2025-09-01T17:13:08.477354","level":"error","event":"Process timed out, PID: 204","logger":"airflow.utils.timeout.TimeoutPosix"}
{"timestamp":"2025-09-01T17:13:08.497016","level":"error","event":"Task failed with exception","logger":"task","error_detail":[{"exc_type":"AirflowTaskTimeout","exc_value":"Timeout, PID: 204","exc_notes":[],"syntax_error":null,"is_cause":false,"frames":[{"filename":"/home/airflow/.local/lib/python3.12/site-packages/airflow/sdk/execution_time/task_runner.py","lineno":920,"name":"run"},{"filename":"/home/airflow/.local/lib/python3.12/site-packages/airflow/sdk/execution_time/task_runner.py","lineno":1210,"name":"_execute_task"},{"filename":"/home/airflow/.local/lib/python3.12/site-packages/airflow/sdk/bases/operator.py","lineno":397,"name":"wrapper"},{"filename":"/home/airflow/.local/lib/python3.12/site-packages/airflow/sdk/bases/decorator.py","lineno":251,"name":"execute"},{"filename":"/home/airflow/.local/lib/python3.12/site-packages/airflow/sdk/bases/operator.py","lineno":397,"name":"wrapper"},{"filename":"/home/airflow/.local/lib/python3.12/site-packages/airflow/providers/standard/operators/python.py","lineno":216,"name":"execute"},{"filename":"/home/airflow/.local/lib/python3.12/site-packages/airflow/providers/standard/operators/python.py","lineno":239,"name":"execute_callable"},{"filename":"/home/airflow/.local/lib/python3.12/site-packages/airflow/sdk/execution_time/callback_runner.py","lineno":81,"name":"run"},{"filename":"/opt/airflow/dags/my_dag.py","lineno":184,"name":"run_gcdft"},{"filename":"/usr/local/lib/python3.12/subprocess.py","lineno":550,"name":"run"},{"filename":"/usr/local/lib/python3.12/subprocess.py","lineno":1201,"name":"communicate"},{"filename":"/usr/local/lib/python3.12/subprocess.py","lineno":1264,"name":"wait"},{"filename":"/usr/local/lib/python3.12/subprocess.py","lineno":2053,"name":"_wait"},{"filename":"/usr/local/lib/python3.12/subprocess.py","lineno":2011,"name":"_try_wait"},{"filename":"/home/airflow/.local/lib/python3.12/site-packages/airflow/utils/timeout.py","lineno":69,"name":"handle_timeout"}],"is_group":false,"exceptions":[]}]}
{"timestamp":"2025-09-01T17:13:18.857812Z","level":"info","event":"\tLinear fluid (dielectric constant: 78.4, screening length: 5.74355 Bohr) occupying 0.333410 of unit cell:\tCompleted after 16 iterations at t[s]:   1197.43","chan":"stdout","logger":"task"}
{"timestamp":"2025-09-01T17:13:18.861513Z","level":"info","event":"\tFillingsUpdate:  mu: -0.181565561  nElectrons: 287.900000","chan":"stdout","logger":"task"}
{"timestamp":"2025-09-01T17:13:18.888417Z","level":"info","event":"\tSubspaceRotationAdjust: set factor to 0.136","chan":"stdout","logger":"task"}
{"timestamp":"2025-09-01T17:13:18.889014Z","level":"info","event":"ElecMinimize: Iter:   2  F: -1123.580109959529409  |grad|_K:  7.125e-05  alpha:  5.196e-01  linmin: -3.042e-05  t[s]:   1209.66","chan":"stdout","logger":"task"}
{"timestamp":"2025-09-01T17:13:36.773596Z","level":"info","event":"\tLinear fluid (dielectric constant: 78.4, screening length: 5.74355 Bohr) occupying 0.335711 of unit cell:\tCompleted after 17 iterations at t[s]:   1219.92","chan":"stdout","logger":"task"}
{"timestamp":"2025-09-01T17:13:49.489413Z","level":"info","event":"\tLinear fluid (dielectric constant: 78.4, screening length: 5.74355 Bohr) occupying 0.336344 of unit cell:\tCompleted after 14 iterations at t[s]:   1228.81","chan":"stdout","logger":"task"}
{"timestamp":"2025-09-01T17:13:49.491466Z","level":"info","event":"\tFillingsUpdate:  mu: -0.173687428  nElectrons: 287.900000","chan":"stdout","logger":"task"}
{"timestamp":"2025-09-01T17:13:49.509887Z","level":"info","event":"\tSubspaceRotationAdjust: set factor to 0.116","chan":"stdout","logger":"task"}
{"timestamp":"2025-09-01T17:13:49.510387Z","level":"info","event":"ElecMinimize: Iter:   3  F: -1123.583494004137492  |grad|_K:  5.116e-05  alpha:  6.652e-01  linmin: -2.144e-05  t[s]:   1240.28","chan":"stdout","logger":"task"}
{"timestamp":"2025-09-01T17:14:07.288412Z","level":"info","event":"\tLinear fluid (dielectric constant: 78.4, screening length: 5.74355 Bohr) occupying 0.337964 of unit cell:\tCompleted after 15 iterations at t[s]:   1250.98","chan":"stdout","logger":"task"}
