{"timestamp":"2025-09-01T17:19:22.207715","level":"info","event":"DAG bundles loaded: dags-folder","logger":"airflow.dag_processing.bundles.manager.DagBundlesManager"}
{"timestamp":"2025-09-01T17:19:22.208630","level":"info","event":"Filling up the DagBag from /opt/airflow/dags/my_dag.py","logger":"airflow.models.dagbag.DagBag"}
{"timestamp":"2025-09-01T17:19:26.716303Z","level":"info","event":"","chan":"stdout","logger":"task"}
{"timestamp":"2025-09-01T17:19:26.717142Z","level":"info","event":"*************** JDFTx 1.7.0  ***************","chan":"stdout","logger":"task"}
{"timestamp":"2025-09-01T17:19:26.717611Z","level":"info","event":"","chan":"stdout","logger":"task"}
{"timestamp":"2025-09-01T17:19:26.722265Z","level":"info","event":"Start date and time: Mon Sep  1 17:19:26 2025","chan":"stdout","logger":"task"}
{"timestamp":"2025-09-01T17:19:26.722612Z","level":"info","event":"Executable jdftx with command-line: -i /opt/airflow/output/gc_dft/mp-755394-111-5_-0.1.in","chan":"stdout","logger":"task"}
{"timestamp":"2025-09-01T17:19:26.722916Z","level":"info","event":"Running on hosts (process indices):  4c196f876d10 (0)","chan":"stdout","logger":"task"}
{"timestamp":"2025-09-01T17:19:26.723228Z","level":"info","event":"Divided in process groups (process indices):  0 (0)","chan":"stdout","logger":"task"}
{"timestamp":"2025-09-01T17:19:26.723476Z","level":"info","event":"Resource initialization completed at t[s]:      0.00","chan":"stdout","logger":"task"}
{"timestamp":"2025-09-01T17:19:26.723670Z","level":"info","event":"Run totals: 1 processes, 8 threads, 0 GPUs","chan":"stdout","logger":"task"}
{"timestamp":"2025-09-01T17:19:26.723873Z","level":"info","event":"","chan":"stdout","logger":"task"}
{"timestamp":"2025-09-01T17:19:26.724085Z","level":"info","event":"","chan":"stdout","logger":"task"}
{"timestamp":"2025-09-01T17:19:26.724325Z","level":"info","event":"Input parsed successfully to the following command list (including defaults):","chan":"stdout","logger":"task"}
{"timestamp":"2025-09-01T17:19:26.724517Z","level":"info","event":"","chan":"stdout","logger":"task"}
{"timestamp":"2025-09-01T17:19:26.724669Z","level":"info","event":"basis kpoint-dependent","chan":"stdout","logger":"task"}
{"timestamp":"2025-09-01T17:19:26.724807Z","level":"info","event":"coords-type Cartesian","chan":"stdout","logger":"task"}
{"timestamp":"2025-09-01T17:19:26.724999Z","level":"info","event":"core-overlap-check vector","chan":"stdout","logger":"task"}
{"timestamp":"2025-09-01T17:19:26.725262Z","level":"info","event":"coulomb-interaction Periodic","chan":"stdout","logger":"task"}
{"timestamp":"2025-09-01T17:19:26.725445Z","level":"info","event":"davidson-band-ratio 1.1","chan":"stdout","logger":"task"}
{"timestamp":"2025-09-01T17:19:26.725601Z","level":"info","event":"dump End State","chan":"stdout","logger":"task"}
{"timestamp":"2025-09-01T17:19:26.725800Z","level":"info","event":"dump-name $INPUT.$VAR","chan":"stdout","logger":"task"}
{"timestamp":"2025-09-01T17:19:26.726075Z","level":"info","event":"elec-cutoff 5","chan":"stdout","logger":"task"}
{"timestamp":"2025-09-01T17:19:26.726436Z","level":"info","event":"elec-eigen-algo Davidson","chan":"stdout","logger":"task"}
{"timestamp":"2025-09-01T17:19:26.726685Z","level":"info","event":"elec-ex-corr gga-PBE","chan":"stdout","logger":"task"}
{"timestamp":"2025-09-01T17:19:26.726916Z","level":"info","event":"elec-initial-charge -0.100000","chan":"stdout","logger":"task"}
{"timestamp":"2025-09-01T17:19:26.727106Z","level":"info","event":"elec-smearing Fermi 0.00734","chan":"stdout","logger":"task"}
{"timestamp":"2025-09-01T17:19:26.727286Z","level":"info","event":"electronic-minimize  \\","chan":"stdout","logger":"task"}
{"timestamp":"2025-09-01T17:19:26.727474Z","level":"info","event":"\tdirUpdateScheme      FletcherReeves \\","chan":"stdout","logger":"task"}
{"timestamp":"2025-09-01T17:19:26.727670Z","level":"info","event":"\tlinminMethod         DirUpdateRecommended \\","chan":"stdout","logger":"task"}
{"timestamp":"2025-09-01T17:19:26.727883Z","level":"info","event":"\tnIterations          10 \\","chan":"stdout","logger":"task"}
{"timestamp":"2025-09-01T17:19:26.728139Z","level":"info","event":"\thistory              15 \\","chan":"stdout","logger":"task"}
{"timestamp":"2025-09-01T17:19:26.728604Z","level":"info","event":"\tknormThreshold       0 \\","chan":"stdout","logger":"task"}
{"timestamp":"2025-09-01T17:19:26.728913Z","level":"info","event":"\tmaxThreshold         no \\","chan":"stdout","logger":"task"}
{"timestamp":"2025-09-01T17:19:26.729178Z","level":"info","event":"\tenergyDiffThreshold  1e-05 \\","chan":"stdout","logger":"task"}
{"timestamp":"2025-09-01T17:19:26.729456Z","level":"info","event":"\tnEnergyDiff          2 \\","chan":"stdout","logger":"task"}
{"timestamp":"2025-09-01T17:19:26.729673Z","level":"info","event":"\tconvergeAll          no \\","chan":"stdout","logger":"task"}
{"timestamp":"2025-09-01T17:19:26.729899Z","level":"info","event":"\talphaTstart          1 \\","chan":"stdout","logger":"task"}
{"timestamp":"2025-09-01T17:19:26.730151Z","level":"info","event":"\talphaTmin            1e-10 \\","chan":"stdout","logger":"task"}
{"timestamp":"2025-09-01T17:19:26.730348Z","level":"info","event":"\tupdateTestStepSize   yes \\","chan":"stdout","logger":"task"}
{"timestamp":"2025-09-01T17:19:26.730604Z","level":"info","event":"\talphaTreduceFactor   0.1 \\","chan":"stdout","logger":"task"}
{"timestamp":"2025-09-01T17:19:26.730839Z","level":"info","event":"\talphaTincreaseFactor 3 \\","chan":"stdout","logger":"task"}
{"timestamp":"2025-09-01T17:19:26.731047Z","level":"info","event":"\tnAlphaAdjustMax      3 \\","chan":"stdout","logger":"task"}
{"timestamp":"2025-09-01T17:19:26.731283Z","level":"info","event":"\twolfeEnergy          0.0001 \\","chan":"stdout","logger":"task"}
{"timestamp":"2025-09-01T17:19:26.731464Z","level":"info","event":"\twolfeGradient        0.9 \\","chan":"stdout","logger":"task"}
{"timestamp":"2025-09-01T17:19:26.731694Z","level":"info","event":"\tabortOnFailedStep    no \\","chan":"stdout","logger":"task"}
{"timestamp":"2025-09-01T17:19:26.731899Z","level":"info","event":"\tfdTest               no","chan":"stdout","logger":"task"}
{"timestamp":"2025-09-01T17:19:26.732245Z","level":"info","event":"exchange-regularization WignerSeitzTruncated","chan":"stdout","logger":"task"}
{"timestamp":"2025-09-01T17:19:26.732515Z","level":"info","event":"fluid LinearPCM 298.000000 1.013250","chan":"stdout","logger":"task"}
{"timestamp":"2025-09-01T17:19:26.732715Z","level":"info","event":"fluid-anion F- 1 MeanFieldLJ \\","chan":"stdout","logger":"task"}
{"timestamp":"2025-09-01T17:19:26.732970Z","level":"info","event":"\tepsBulk 1 \\","chan":"stdout","logger":"task"}
{"timestamp":"2025-09-01T17:19:26.733169Z","level":"info","event":"\tpMol 0 \\","chan":"stdout","logger":"task"}
{"timestamp":"2025-09-01T17:19:26.733440Z","level":"info","event":"\tepsInf 1 \\","chan":"stdout","logger":"task"}
{"timestamp":"2025-09-01T17:19:26.733618Z","level":"info","event":"\tPvap 0 \\","chan":"stdout","logger":"task"}
{"timestamp":"2025-09-01T17:19:26.733842Z","level":"info","event":"\tsigmaBulk 0 \\","chan":"stdout","logger":"task"}
{"timestamp":"2025-09-01T17:19:26.734115Z","level":"info","event":"\tRvdw 2.24877 \\","chan":"stdout","logger":"task"}
{"timestamp":"2025-09-01T17:19:26.734380Z","level":"info","event":"\tRes 0 \\","chan":"stdout","logger":"task"}
{"timestamp":"2025-09-01T17:19:26.734618Z","level":"info","event":"\ttauNuc 343133","chan":"stdout","logger":"task"}
{"timestamp":"2025-09-01T17:19:26.734920Z","level":"info","event":"fluid-cation Na+ 1 MeanFieldLJ \\","chan":"stdout","logger":"task"}
{"timestamp":"2025-09-01T17:19:26.735231Z","level":"info","event":"\tepsBulk 1 \\","chan":"stdout","logger":"task"}
{"timestamp":"2025-09-01T17:19:26.735448Z","level":"info","event":"\tpMol 0 \\","chan":"stdout","logger":"task"}
{"timestamp":"2025-09-01T17:19:26.735742Z","level":"info","event":"\tepsInf 1 \\","chan":"stdout","logger":"task"}
{"timestamp":"2025-09-01T17:19:26.736038Z","level":"info","event":"\tPvap 0 \\","chan":"stdout","logger":"task"}
{"timestamp":"2025-09-01T17:19:26.736310Z","level":"info","event":"\tsigmaBulk 0 \\","chan":"stdout","logger":"task"}
{"timestamp":"2025-09-01T17:19:26.736569Z","level":"info","event":"\tRvdw 2.19208 \\","chan":"stdout","logger":"task"}
{"timestamp":"2025-09-01T17:19:26.736799Z","level":"info","event":"\tRes 0 \\","chan":"stdout","logger":"task"}
{"timestamp":"2025-09-01T17:19:26.737064Z","level":"info","event":"\ttauNuc 343133","chan":"stdout","logger":"task"}
{"timestamp":"2025-09-01T17:19:26.737245Z","level":"info","event":"fluid-ex-corr lda-TF lda-PZ","chan":"stdout","logger":"task"}
{"timestamp":"2025-09-01T17:19:26.737433Z","level":"info","event":"fluid-gummel-loop 10 1.000000e-05","chan":"stdout","logger":"task"}
{"timestamp":"2025-09-01T17:19:26.737633Z","level":"info","event":"fluid-minimize  \\","chan":"stdout","logger":"task"}
{"timestamp":"2025-09-01T17:19:26.737824Z","level":"info","event":"\tdirUpdateScheme      PolakRibiere \\","chan":"stdout","logger":"task"}
{"timestamp":"2025-09-01T17:19:26.738026Z","level":"info","event":"\tlinminMethod         DirUpdateRecommended \\","chan":"stdout","logger":"task"}
{"timestamp":"2025-09-01T17:19:26.738282Z","level":"info","event":"\tnIterations          400 \\","chan":"stdout","logger":"task"}
{"timestamp":"2025-09-01T17:19:26.738479Z","level":"info","event":"\thistory              15 \\","chan":"stdout","logger":"task"}
{"timestamp":"2025-09-01T17:19:26.738678Z","level":"info","event":"\tknormThreshold       1e-11 \\","chan":"stdout","logger":"task"}
{"timestamp":"2025-09-01T17:19:26.738907Z","level":"info","event":"\tmaxThreshold         no \\","chan":"stdout","logger":"task"}
{"timestamp":"2025-09-01T17:19:26.739471Z","level":"info","event":"\tenergyDiffThreshold  0 \\","chan":"stdout","logger":"task"}
{"timestamp":"2025-09-01T17:19:26.739652Z","level":"info","event":"\tnEnergyDiff          2 \\","chan":"stdout","logger":"task"}
{"timestamp":"2025-09-01T17:19:26.739894Z","level":"info","event":"\tconvergeAll          no \\","chan":"stdout","logger":"task"}
{"timestamp":"2025-09-01T17:19:26.740098Z","level":"info","event":"\talphaTstart          1 \\","chan":"stdout","logger":"task"}
{"timestamp":"2025-09-01T17:19:26.740363Z","level":"info","event":"\talphaTmin            1e-10 \\","chan":"stdout","logger":"task"}
{"timestamp":"2025-09-01T17:19:26.740722Z","level":"info","event":"\tupdateTestStepSize   yes \\","chan":"stdout","logger":"task"}
{"timestamp":"2025-09-01T17:19:26.741013Z","level":"info","event":"\talphaTreduceFactor   0.1 \\","chan":"stdout","logger":"task"}
{"timestamp":"2025-09-01T17:19:26.741246Z","level":"info","event":"\talphaTincreaseFactor 3 \\","chan":"stdout","logger":"task"}
{"timestamp":"2025-09-01T17:19:26.741463Z","level":"info","event":"\tnAlphaAdjustMax      6 \\","chan":"stdout","logger":"task"}
{"timestamp":"2025-09-01T17:19:26.741655Z","level":"info","event":"\twolfeEnergy          0.0001 \\","chan":"stdout","logger":"task"}
{"timestamp":"2025-09-01T17:19:26.741892Z","level":"info","event":"\twolfeGradient        0.9 \\","chan":"stdout","logger":"task"}
{"timestamp":"2025-09-01T17:19:26.742172Z","level":"info","event":"\tabortOnFailedStep    no \\","chan":"stdout","logger":"task"}
{"timestamp":"2025-09-01T17:19:26.742417Z","level":"info","event":"\tfdTest               no","chan":"stdout","logger":"task"}
{"timestamp":"2025-09-01T17:19:26.742665Z","level":"info","event":"fluid-solvent H2O 55.338 ScalarEOS \\","chan":"stdout","logger":"task"}
{"timestamp":"2025-09-01T17:19:26.742937Z","level":"info","event":"\tepsBulk 78.4 \\","chan":"stdout","logger":"task"}
{"timestamp":"2025-09-01T17:19:26.743141Z","level":"info","event":"\tpMol 0.92466 \\","chan":"stdout","logger":"task"}
{"timestamp":"2025-09-01T17:19:26.743352Z","level":"info","event":"\tepsInf 1.77 \\","chan":"stdout","logger":"task"}
{"timestamp":"2025-09-01T17:19:26.743591Z","level":"info","event":"\tPvap 1.06736e-10 \\","chan":"stdout","logger":"task"}
{"timestamp":"2025-09-01T17:19:26.743895Z","level":"info","event":"\tsigmaBulk 4.62e-05 \\","chan":"stdout","logger":"task"}
{"timestamp":"2025-09-01T17:19:26.744674Z","level":"info","event":"\tRvdw 2.61727 \\","chan":"stdout","logger":"task"}
{"timestamp":"2025-09-01T17:19:26.745046Z","level":"info","event":"\tRes 1.42 \\","chan":"stdout","logger":"task"}
{"timestamp":"2025-09-01T17:19:26.745457Z","level":"info","event":"\ttauNuc 343133 \\","chan":"stdout","logger":"task"}
{"timestamp":"2025-09-01T17:19:26.746054Z","level":"info","event":"\tpoleEl 15 7 1","chan":"stdout","logger":"task"}
{"timestamp":"2025-09-01T17:19:26.746308Z","level":"info","event":"forces-output-coords Positions","chan":"stdout","logger":"task"}
{"timestamp":"2025-09-01T17:19:26.746644Z","level":"info","event":"initial-state $VAR","chan":"stdout","logger":"task"}
{"timestamp":"2025-09-01T17:19:26.747120Z","level":"info","event":"ion V   0.000297000000000   0.000206000000000  38.346984999999997 1","chan":"stdout","logger":"task"}
{"timestamp":"2025-09-01T17:19:26.747426Z","level":"info","event":"ion V  -2.867357999999999   4.115779999999999  30.895672999999995 1","chan":"stdout","logger":"task"}
{"timestamp":"2025-09-01T17:19:26.747896Z","level":"info","event":"ion V   2.087893999999999   6.178677999999999  16.405605000000001 1","chan":"stdout","logger":"task"}
{"timestamp":"2025-09-01T17:19:26.748260Z","level":"info","event":"ion V   2.923822000000000   2.052782000000000  32.948802999999998 1","chan":"stdout","logger":"task"}
{"timestamp":"2025-09-01T17:19:26.748559Z","level":"info","event":"ion V   0.000297000000000   0.000206000000000  49.154978999999990 1","chan":"stdout","logger":"task"}
{"timestamp":"2025-09-01T17:19:26.748841Z","level":"info","event":"ion V  -2.867357999999999   4.115779999999999  41.703666999999996 1","chan":"stdout","logger":"task"}
{"timestamp":"2025-09-01T17:19:26.749114Z","level":"info","event":"ion V   2.087893999999999   6.178677999999999  27.213598999999995 1","chan":"stdout","logger":"task"}
{"timestamp":"2025-09-01T17:19:26.749447Z","level":"info","event":"ion V   2.923822000000000   2.052782000000000  43.756796999999992 1","chan":"stdout","logger":"task"}
{"timestamp":"2025-09-01T17:19:26.749864Z","level":"info","event":"ion V   0.000297000000000   0.000206000000000  59.962971999999993 1","chan":"stdout","logger":"task"}
{"timestamp":"2025-09-01T17:19:26.750159Z","level":"info","event":"ion V  -2.867357999999999   4.115779999999999  52.511659999999992 1","chan":"stdout","logger":"task"}
{"timestamp":"2025-09-01T17:19:26.750370Z","level":"info","event":"ion V   2.087893999999999   6.178677999999999  38.021592999999996 1","chan":"stdout","logger":"task"}
{"timestamp":"2025-09-01T17:19:26.757150Z","level":"info","event":"ion V   2.923822000000000   2.052782000000000  54.564791000000000 1","chan":"stdout","logger":"task"}
{"timestamp":"2025-09-01T17:19:26.757602Z","level":"info","event":"ion O  -0.406594999999999   3.963560999999999  27.797672999999996 1","chan":"stdout","logger":"task"}
{"timestamp":"2025-09-01T17:19:26.758553Z","level":"info","event":"ion O   2.336115000000000   7.929795999999998  19.092392999999998 1","chan":"stdout","logger":"task"}
{"timestamp":"2025-09-01T17:19:26.758925Z","level":"info","event":"ion O  -3.080845999999999   7.974219999999999  20.635470999999995 1","chan":"stdout","logger":"task"}
{"timestamp":"2025-09-01T17:19:26.759222Z","level":"info","event":"ion O   8.092021000000001   0.256846000000000  28.718620999999995 1","chan":"stdout","logger":"task"}
{"timestamp":"2025-09-01T17:19:26.759496Z","level":"info","event":"ion O   2.674004000000000   0.301442000000000  30.262725999999997 1","chan":"stdout","logger":"task"}
{"timestamp":"2025-09-01T17:19:26.759962Z","level":"info","event":"ion O   5.417259000000000   4.267018999999999  21.556788999999998 1","chan":"stdout","logger":"task"}
{"timestamp":"2025-09-01T17:19:26.760273Z","level":"info","event":"ion O  -0.406594999999999   3.963560999999999  38.605665999999992 1","chan":"stdout","logger":"task"}
{"timestamp":"2025-09-01T17:19:26.760580Z","level":"info","event":"ion O   4.781548000000001   4.427946999999999  27.040397999999993 1","chan":"stdout","logger":"task"}
{"timestamp":"2025-09-01T17:19:26.760904Z","level":"info","event":"ion O   2.336115000000000   7.929795999999998  29.900386999999984 1","chan":"stdout","logger":"task"}
{"timestamp":"2025-09-01T17:19:26.761443Z","level":"info","event":"ion O  -3.080845999999999   7.974219999999999  31.443464999999996 1","chan":"stdout","logger":"task"}
{"timestamp":"2025-09-01T17:19:26.761708Z","level":"info","event":"ion O   8.092021000000001   0.256846000000000  39.526613999999995 1","chan":"stdout","logger":"task"}
{"timestamp":"2025-09-01T17:19:26.762056Z","level":"info","event":"ion O   2.674004000000000   0.301442000000000  41.070720000000001 1","chan":"stdout","logger":"task"}
{"timestamp":"2025-09-01T17:19:26.762581Z","level":"info","event":"ion O   0.229520000000000   3.803208999999999  33.123258999999990 1","chan":"stdout","logger":"task"}
{"timestamp":"2025-09-01T17:19:26.762816Z","level":"info","event":"ion O   5.417259000000000   4.267018999999999  32.364783000000003 1","chan":"stdout","logger":"task"}
{"timestamp":"2025-09-01T17:19:26.763359Z","level":"info","event":"ion O  -0.406594999999999   3.963560999999999  49.413659999999993 1","chan":"stdout","logger":"task"}
{"timestamp":"2025-09-01T17:19:26.763603Z","level":"info","event":"ion O   4.781548000000001   4.427946999999999  37.848391999999990 1","chan":"stdout","logger":"task"}
{"timestamp":"2025-09-01T17:19:26.763847Z","level":"info","event":"ion O   2.336115000000000   7.929795999999998  40.708380999999989 1","chan":"stdout","logger":"task"}
{"timestamp":"2025-09-01T17:19:26.764660Z","level":"info","event":"ion O  -3.080845999999999   7.974219999999999  42.251458000000000 1","chan":"stdout","logger":"task"}
{"timestamp":"2025-09-01T17:19:26.764950Z","level":"info","event":"ion O   8.092021000000001   0.256846000000000  50.334608000000003 1","chan":"stdout","logger":"task"}
{"timestamp":"2025-09-01T17:19:26.765580Z","level":"info","event":"ion O   2.674004000000000   0.301442000000000  51.878714000000002 1","chan":"stdout","logger":"task"}
{"timestamp":"2025-09-01T17:19:26.765813Z","level":"info","event":"ion O   0.229520000000000   3.803208999999999  43.931252999999998 1","chan":"stdout","logger":"task"}
{"timestamp":"2025-09-01T17:19:26.766020Z","level":"info","event":"ion O   5.417259000000000   4.267018999999999  43.172776999999996 1","chan":"stdout","logger":"task"}
{"timestamp":"2025-09-01T17:19:26.766734Z","level":"info","event":"ion-species GBRV/$ID_pbe.uspp","chan":"stdout","logger":"task"}
{"timestamp":"2025-09-01T17:19:26.767075Z","level":"info","event":"ion-width Ecut","chan":"stdout","logger":"task"}
{"timestamp":"2025-09-01T17:19:26.767288Z","level":"info","event":"ionic-minimize  \\","chan":"stdout","logger":"task"}
{"timestamp":"2025-09-01T17:19:26.767549Z","level":"info","event":"\tdirUpdateScheme      L-BFGS \\","chan":"stdout","logger":"task"}
{"timestamp":"2025-09-01T17:19:26.771876Z","level":"info","event":"\tlinminMethod         DirUpdateRecommended \\","chan":"stdout","logger":"task"}
{"timestamp":"2025-09-01T17:19:26.772229Z","level":"info","event":"\tnIterations          0 \\","chan":"stdout","logger":"task"}
{"timestamp":"2025-09-01T17:19:26.772469Z","level":"info","event":"\thistory              15 \\","chan":"stdout","logger":"task"}
{"timestamp":"2025-09-01T17:19:26.772652Z","level":"info","event":"\tknormThreshold       0.0001 \\","chan":"stdout","logger":"task"}
{"timestamp":"2025-09-01T17:19:26.772898Z","level":"info","event":"\tmaxThreshold         no \\","chan":"stdout","logger":"task"}
{"timestamp":"2025-09-01T17:19:26.773166Z","level":"info","event":"\tenergyDiffThreshold  1e-06 \\","chan":"stdout","logger":"task"}
{"timestamp":"2025-09-01T17:19:26.773392Z","level":"info","event":"\tnEnergyDiff          2 \\","chan":"stdout","logger":"task"}
{"timestamp":"2025-09-01T17:19:26.779325Z","level":"info","event":"\tconvergeAll          no \\","chan":"stdout","logger":"task"}
{"timestamp":"2025-09-01T17:19:26.779681Z","level":"info","event":"\talphaTstart          1 \\","chan":"stdout","logger":"task"}
{"timestamp":"2025-09-01T17:19:26.780013Z","level":"info","event":"\talphaTmin            1e-10 \\","chan":"stdout","logger":"task"}
{"timestamp":"2025-09-01T17:19:26.784089Z","level":"info","event":"\tupdateTestStepSize   yes \\","chan":"stdout","logger":"task"}
{"timestamp":"2025-09-01T17:19:26.784460Z","level":"info","event":"\talphaTreduceFactor   0.1 \\","chan":"stdout","logger":"task"}
{"timestamp":"2025-09-01T17:19:26.784787Z","level":"info","event":"\talphaTincreaseFactor 3 \\","chan":"stdout","logger":"task"}
{"timestamp":"2025-09-01T17:19:26.785096Z","level":"info","event":"\tnAlphaAdjustMax      3 \\","chan":"stdout","logger":"task"}
{"timestamp":"2025-09-01T17:19:26.785342Z","level":"info","event":"\twolfeEnergy          0.0001 \\","chan":"stdout","logger":"task"}
{"timestamp":"2025-09-01T17:19:26.785533Z","level":"info","event":"\twolfeGradient        0.9 \\","chan":"stdout","logger":"task"}
{"timestamp":"2025-09-01T17:19:26.785785Z","level":"info","event":"\tabortOnFailedStep    no \\","chan":"stdout","logger":"task"}
{"timestamp":"2025-09-01T17:19:26.786109Z","level":"info","event":"\tfdTest               no","chan":"stdout","logger":"task"}
{"timestamp":"2025-09-01T17:19:26.786392Z","level":"info","event":"kpoint   0.500000000000   0.500000000000   0.500000000000  1.00000000000000","chan":"stdout","logger":"task"}
{"timestamp":"2025-09-01T17:19:26.786661Z","level":"info","event":"kpoint-folding 1 1 1","chan":"stdout","logger":"task"}
{"timestamp":"2025-09-01T17:19:26.786925Z","level":"info","event":"latt-move-scale 1 1 1","chan":"stdout","logger":"task"}
{"timestamp":"2025-09-01T17:19:26.787304Z","level":"info","event":"latt-scale 1 1 1","chan":"stdout","logger":"task"}
{"timestamp":"2025-09-01T17:19:26.787686Z","level":"info","event":"lattice  \\","chan":"stdout","logger":"task"}
{"timestamp":"2025-09-01T17:19:26.788177Z","level":"info","event":"\t  10.749050000000000   -5.737742000000000    0.000000000000000  \\","chan":"stdout","logger":"task"}
{"timestamp":"2025-09-01T17:19:26.788608Z","level":"info","event":"\t   0.000000000000000    8.231180999999999    0.000000000000000  \\","chan":"stdout","logger":"task"}
{"timestamp":"2025-09-01T17:19:26.789153Z","level":"info","event":"\t -12.434680000000000  -14.908436999999999   97.271944000000005","chan":"stdout","logger":"task"}
{"timestamp":"2025-09-01T17:19:26.789558Z","level":"info","event":"lattice-minimize  \\","chan":"stdout","logger":"task"}
{"timestamp":"2025-09-01T17:19:26.789959Z","level":"info","event":"\tdirUpdateScheme      L-BFGS \\","chan":"stdout","logger":"task"}
{"timestamp":"2025-09-01T17:19:26.790318Z","level":"info","event":"\tlinminMethod         DirUpdateRecommended \\","chan":"stdout","logger":"task"}
{"timestamp":"2025-09-01T17:19:26.791042Z","level":"info","event":"\tnIterations          0 \\","chan":"stdout","logger":"task"}
{"timestamp":"2025-09-01T17:19:26.791377Z","level":"info","event":"\thistory              15 \\","chan":"stdout","logger":"task"}
{"timestamp":"2025-09-01T17:19:26.791744Z","level":"info","event":"\tknormThreshold       0 \\","chan":"stdout","logger":"task"}
{"timestamp":"2025-09-01T17:19:26.792079Z","level":"info","event":"\tmaxThreshold         no \\","chan":"stdout","logger":"task"}
{"timestamp":"2025-09-01T17:19:26.792433Z","level":"info","event":"\tenergyDiffThreshold  1e-06 \\","chan":"stdout","logger":"task"}
{"timestamp":"2025-09-01T17:19:26.792834Z","level":"info","event":"\tnEnergyDiff          2 \\","chan":"stdout","logger":"task"}
{"timestamp":"2025-09-01T17:19:26.793138Z","level":"info","event":"\tconvergeAll          no \\","chan":"stdout","logger":"task"}
{"timestamp":"2025-09-01T17:19:26.793405Z","level":"info","event":"\talphaTstart          1 \\","chan":"stdout","logger":"task"}
{"timestamp":"2025-09-01T17:19:26.793637Z","level":"info","event":"\talphaTmin            1e-10 \\","chan":"stdout","logger":"task"}
{"timestamp":"2025-09-01T17:19:26.793936Z","level":"info","event":"\tupdateTestStepSize   yes \\","chan":"stdout","logger":"task"}
{"timestamp":"2025-09-01T17:19:26.794542Z","level":"info","event":"\talphaTreduceFactor   0.1 \\","chan":"stdout","logger":"task"}
{"timestamp":"2025-09-01T17:19:26.794870Z","level":"info","event":"\talphaTincreaseFactor 3 \\","chan":"stdout","logger":"task"}
{"timestamp":"2025-09-01T17:19:26.795757Z","level":"info","event":"\tnAlphaAdjustMax      3 \\","chan":"stdout","logger":"task"}
{"timestamp":"2025-09-01T17:19:26.796174Z","level":"info","event":"\twolfeEnergy          0.0001 \\","chan":"stdout","logger":"task"}
{"timestamp":"2025-09-01T17:19:26.796762Z","level":"info","event":"\twolfeGradient        0.9 \\","chan":"stdout","logger":"task"}
{"timestamp":"2025-09-01T17:19:26.797130Z","level":"info","event":"\tabortOnFailedStep    no \\","chan":"stdout","logger":"task"}
{"timestamp":"2025-09-01T17:19:26.797718Z","level":"info","event":"\tfdTest               no","chan":"stdout","logger":"task"}
{"timestamp":"2025-09-01T17:19:26.798291Z","level":"info","event":"lcao-params 15 1e-05 0.00734","chan":"stdout","logger":"task"}
{"timestamp":"2025-09-01T17:19:26.798754Z","level":"info","event":"pcm-variant CANDLE","chan":"stdout","logger":"task"}
{"timestamp":"2025-09-01T17:19:26.799336Z","level":"info","event":"perturb-minimize  \\","chan":"stdout","logger":"task"}
{"timestamp":"2025-09-01T17:19:26.799914Z","level":"info","event":"\tnIterations            0 \\","chan":"stdout","logger":"task"}
{"timestamp":"2025-09-01T17:19:26.800240Z","level":"info","event":"\talgorithm              MINRES \\","chan":"stdout","logger":"task"}
{"timestamp":"2025-09-01T17:19:26.800507Z","level":"info","event":"\tresidualTol            0.0001 \\","chan":"stdout","logger":"task"}
{"timestamp":"2025-09-01T17:19:26.800761Z","level":"info","event":"\tresidualDiffThreshold  0.0001 \\","chan":"stdout","logger":"task"}
{"timestamp":"2025-09-01T17:19:26.801378Z","level":"info","event":"\tCGBypass               no \\","chan":"stdout","logger":"task"}
{"timestamp":"2025-09-01T17:19:26.808090Z","level":"info","event":"\trecomputeResidual      no","chan":"stdout","logger":"task"}
{"timestamp":"2025-09-01T17:19:26.808464Z","level":"info","event":"spintype no-spin","chan":"stdout","logger":"task"}
{"timestamp":"2025-09-01T17:19:26.808728Z","level":"info","event":"subspace-rotation-factor 1 yes","chan":"stdout","logger":"task"}
{"timestamp":"2025-09-01T17:19:26.809061Z","level":"info","event":"symmetries automatic","chan":"stdout","logger":"task"}
{"timestamp":"2025-09-01T17:19:26.809353Z","level":"info","event":"symmetry-threshold 0.0001","chan":"stdout","logger":"task"}
{"timestamp":"2025-09-01T17:19:26.809652Z","level":"info","event":"","chan":"stdout","logger":"task"}
{"timestamp":"2025-09-01T17:19:26.810144Z","level":"info","event":"","chan":"stdout","logger":"task"}
{"timestamp":"2025-09-01T17:19:26.810931Z","level":"info","event":"","chan":"stdout","logger":"task"}
{"timestamp":"2025-09-01T17:19:26.811558Z","level":"info","event":"---------- Setting up symmetries ----------","chan":"stdout","logger":"task"}
{"timestamp":"2025-09-01T17:19:26.811982Z","level":"info","event":"","chan":"stdout","logger":"task"}
{"timestamp":"2025-09-01T17:19:26.812380Z","level":"info","event":"Non-trivial transmission matrix:","chan":"stdout","logger":"task"}
{"timestamp":"2025-09-01T17:19:26.812723Z","level":"info","event":"[   1   0   3  ]","chan":"stdout","logger":"task"}
{"timestamp":"2025-09-01T17:19:26.813067Z","level":"info","event":"[   0   1   3  ]","chan":"stdout","logger":"task"}
{"timestamp":"2025-09-01T17:19:26.813510Z","level":"info","event":"[   0   0   1  ]","chan":"stdout","logger":"task"}
{"timestamp":"2025-09-01T17:19:26.813790Z","level":"info","event":"with reduced lattice vectors:","chan":"stdout","logger":"task"}
{"timestamp":"2025-09-01T17:19:26.814037Z","level":"info","event":"[     10.749050     -5.737742     15.033924  ]","chan":"stdout","logger":"task"}
{"timestamp":"2025-09-01T17:19:26.814300Z","level":"info","event":"[      0.000000      8.231181     24.693543  ]","chan":"stdout","logger":"task"}
{"timestamp":"2025-09-01T17:19:26.814581Z","level":"info","event":"[    -12.434680    -14.908437     15.242593  ]","chan":"stdout","logger":"task"}
{"timestamp":"2025-09-01T17:19:26.814848Z","level":"info","event":"","chan":"stdout","logger":"task"}
{"timestamp":"2025-09-01T17:19:26.815833Z","level":"info","event":"Found 2 point-group symmetries of the bravais lattice","chan":"stdout","logger":"task"}
{"timestamp":"2025-09-01T17:19:26.816169Z","level":"info","event":"Found 1 space-group symmetries with basis","chan":"stdout","logger":"task"}
{"timestamp":"2025-09-01T17:19:26.816505Z","level":"info","event":"Applied RMS atom displacement 0 bohrs to make symmetries exact.","chan":"stdout","logger":"task"}
{"timestamp":"2025-09-01T17:19:27.027370Z","level":"info","event":"","chan":"stdout","logger":"task"}
{"timestamp":"2025-09-01T17:19:27.027791Z","level":"info","event":"---------- Initializing the Grid ----------","chan":"stdout","logger":"task"}
{"timestamp":"2025-09-01T17:19:27.028228Z","level":"info","event":"R =","chan":"stdout","logger":"task"}
{"timestamp":"2025-09-01T17:19:27.028977Z","level":"info","event":"[      10.7491     -5.73774            0  ]","chan":"stdout","logger":"task"}
{"timestamp":"2025-09-01T17:19:27.029367Z","level":"info","event":"[            0      8.23118            0  ]","chan":"stdout","logger":"task"}
{"timestamp":"2025-09-01T17:19:27.030092Z","level":"info","event":"[     -12.4347     -14.9084      97.2719  ]","chan":"stdout","logger":"task"}
{"timestamp":"2025-09-01T17:19:27.030575Z","level":"info","event":"unit cell volume = 8606.37","chan":"stdout","logger":"task"}
{"timestamp":"2025-09-01T17:19:27.030884Z","level":"info","event":"G =","chan":"stdout","logger":"task"}
{"timestamp":"2025-09-01T17:19:27.031403Z","level":"info","event":"[   0.584534   0.407463         -0  ]","chan":"stdout","logger":"task"}
{"timestamp":"2025-09-01T17:19:27.031769Z","level":"info","event":"[         -0   0.763339          0  ]","chan":"stdout","logger":"task"}
{"timestamp":"2025-09-01T17:19:27.032246Z","level":"info","event":"[  0.0747234   0.169081   0.064594  ]","chan":"stdout","logger":"task"}
{"timestamp":"2025-09-01T17:19:27.032529Z","level":"info","event":"Minimum fftbox size, Smin = [  36  40  196  ]","chan":"stdout","logger":"task"}
{"timestamp":"2025-09-01T17:19:27.032839Z","level":"info","event":"Chosen fftbox size, S = [  36  40  196  ]","chan":"stdout","logger":"task"}
{"timestamp":"2025-09-01T17:19:27.037498Z","level":"info","event":"","chan":"stdout","logger":"task"}
{"timestamp":"2025-09-01T17:19:27.038411Z","level":"info","event":"---------- Exchange Correlation functional ----------","chan":"stdout","logger":"task"}
{"timestamp":"2025-09-01T17:19:27.038830Z","level":"info","event":"Initalized PBE GGA exchange.","chan":"stdout","logger":"task"}
{"timestamp":"2025-09-01T17:19:27.039265Z","level":"info","event":"Initalized PBE GGA correlation.","chan":"stdout","logger":"task"}
{"timestamp":"2025-09-01T17:19:27.040555Z","level":"info","event":"","chan":"stdout","logger":"task"}
{"timestamp":"2025-09-01T17:19:27.041629Z","level":"info","event":"---------- Setting up pseudopotentials ----------","chan":"stdout","logger":"task"}
{"timestamp":"2025-09-01T17:19:27.041929Z","level":"info","event":"Width of ionic core gaussian charges (only for fluid interactions / plotting) set to 0.794767","chan":"stdout","logger":"task"}
{"timestamp":"2025-09-01T17:19:27.042400Z","level":"info","event":"","chan":"stdout","logger":"task"}
{"timestamp":"2025-09-01T17:19:27.042714Z","level":"info","event":"Reading pseudopotential file '/opt/jdftx-master/build/pseudopotentials/GBRV/v_pbe.uspp':","chan":"stdout","logger":"task"}
{"timestamp":"2025-09-01T17:19:27.042977Z","level":"info","event":"  Title: V.  Created by USPP 7.3.6 on 31-3-15","chan":"stdout","logger":"task"}
{"timestamp":"2025-09-01T17:19:27.043537Z","level":"info","event":"  Reference state energy: -72.228583.  13 valence electrons in orbitals:","chan":"stdout","logger":"task"}
{"timestamp":"2025-09-01T17:19:27.044126Z","level":"info","event":"    |300>  occupation: 2  eigenvalue: -2.581040","chan":"stdout","logger":"task"}
{"timestamp":"2025-09-01T17:19:27.044547Z","level":"info","event":"    |310>  occupation: 6  eigenvalue: -1.618497","chan":"stdout","logger":"task"}
{"timestamp":"2025-09-01T17:19:27.045292Z","level":"info","event":"    |400>  occupation: 2  eigenvalue: -0.172800","chan":"stdout","logger":"task"}
{"timestamp":"2025-09-01T17:19:27.045612Z","level":"info","event":"    |320>  occupation: 3  eigenvalue: -0.189802","chan":"stdout","logger":"task"}
{"timestamp":"2025-09-01T17:19:27.046024Z","level":"info","event":"  lMax: 2  lLocal: 3  QijEcut: 6","chan":"stdout","logger":"task"}
{"timestamp":"2025-09-01T17:19:27.046904Z","level":"info","event":"  6 projectors sampled on a log grid with 593 points:","chan":"stdout","logger":"task"}
{"timestamp":"2025-09-01T17:19:27.047427Z","level":"info","event":"    l: 0  eig: -2.581041  rCut: 1.5","chan":"stdout","logger":"task"}
{"timestamp":"2025-09-01T17:19:27.047853Z","level":"info","event":"    l: 0  eig: -0.172801  rCut: 1.5","chan":"stdout","logger":"task"}
{"timestamp":"2025-09-01T17:19:27.048221Z","level":"info","event":"    l: 1  eig: -1.618497  rCut: 1.6","chan":"stdout","logger":"task"}
{"timestamp":"2025-09-01T17:19:27.048803Z","level":"info","event":"    l: 1  eig: 0.150000  rCut: 1.6","chan":"stdout","logger":"task"}
{"timestamp":"2025-09-01T17:19:27.049136Z","level":"info","event":"    l: 2  eig: -0.189802  rCut: 1.7","chan":"stdout","logger":"task"}
{"timestamp":"2025-09-01T17:19:27.049458Z","level":"info","event":"    l: 2  eig: 0.150000  rCut: 1.7","chan":"stdout","logger":"task"}
{"timestamp":"2025-09-01T17:19:27.049716Z","level":"info","event":"  Partial core density with radius 0.8","chan":"stdout","logger":"task"}
{"timestamp":"2025-09-01T17:19:27.050202Z","level":"info","event":"  Transforming core density to a uniform radial grid of dG=0.02 with 2181 points.","chan":"stdout","logger":"task"}
{"timestamp":"2025-09-01T17:19:27.050484Z","level":"info","event":"  Transforming local potential to a uniform radial grid of dG=0.02 with 2181 points.","chan":"stdout","logger":"task"}
{"timestamp":"2025-09-01T17:19:27.056060Z","level":"info","event":"  Transforming nonlocal projectors to a uniform radial grid of dG=0.02 with 219 points.","chan":"stdout","logger":"task"}
{"timestamp":"2025-09-01T17:19:27.056396Z","level":"info","event":"  Transforming density augmentations to a uniform radial grid of dG=0.02 with 2181 points.","chan":"stdout","logger":"task"}
{"timestamp":"2025-09-01T17:19:27.056867Z","level":"info","event":"  Transforming atomic orbitals to a uniform radial grid of dG=0.02 with 219 points.","chan":"stdout","logger":"task"}
{"timestamp":"2025-09-01T17:19:27.213967Z","level":"info","event":"  Core radius for overlap checks: 1.80 bohrs.","chan":"stdout","logger":"task"}
{"timestamp":"2025-09-01T17:19:27.215187Z","level":"info","event":"","chan":"stdout","logger":"task"}
{"timestamp":"2025-09-01T17:19:27.216295Z","level":"info","event":"Reading pseudopotential file '/opt/jdftx-master/build/pseudopotentials/GBRV/o_pbe.uspp':","chan":"stdout","logger":"task"}
{"timestamp":"2025-09-01T17:19:27.217531Z","level":"info","event":"  Title: O.  Created by USPP 7.3.6 on 3-2-2014","chan":"stdout","logger":"task"}
{"timestamp":"2025-09-01T17:19:27.217874Z","level":"info","event":"  Reference state energy: -15.894388.  6 valence electrons in orbitals:","chan":"stdout","logger":"task"}
{"timestamp":"2025-09-01T17:19:27.218988Z","level":"info","event":"    |200>  occupation: 2  eigenvalue: -0.878823","chan":"stdout","logger":"task"}
{"timestamp":"2025-09-01T17:19:27.219342Z","level":"info","event":"    |210>  occupation: 4  eigenvalue: -0.332131","chan":"stdout","logger":"task"}
{"timestamp":"2025-09-01T17:19:27.219640Z","level":"info","event":"  lMax: 2  lLocal: 2  QijEcut: 6","chan":"stdout","logger":"task"}
{"timestamp":"2025-09-01T17:19:27.219920Z","level":"info","event":"  5 projectors sampled on a log grid with 511 points:","chan":"stdout","logger":"task"}
{"timestamp":"2025-09-01T17:19:27.220231Z","level":"info","event":"    l: 0  eig: -0.878823  rCut: 1.25","chan":"stdout","logger":"task"}
{"timestamp":"2025-09-01T17:19:27.220474Z","level":"info","event":"    l: 0  eig: 0.000000  rCut: 1.25","chan":"stdout","logger":"task"}
{"timestamp":"2025-09-01T17:19:27.220723Z","level":"info","event":"    l: 1  eig: -0.332132  rCut: 1.25","chan":"stdout","logger":"task"}
{"timestamp":"2025-09-01T17:19:27.221048Z","level":"info","event":"    l: 1  eig: 0.000000  rCut: 1.25","chan":"stdout","logger":"task"}
{"timestamp":"2025-09-01T17:19:27.221378Z","level":"info","event":"    l: 2  eig: 1.000000  rCut: 1.25","chan":"stdout","logger":"task"}
{"timestamp":"2025-09-01T17:19:27.221722Z","level":"info","event":"  Partial core density with radius 0.7","chan":"stdout","logger":"task"}
{"timestamp":"2025-09-01T17:19:27.222030Z","level":"info","event":"  Transforming core density to a uniform radial grid of dG=0.02 with 2181 points.","chan":"stdout","logger":"task"}
{"timestamp":"2025-09-01T17:19:27.222314Z","level":"info","event":"  Transforming local potential to a uniform radial grid of dG=0.02 with 2181 points.","chan":"stdout","logger":"task"}
{"timestamp":"2025-09-01T17:19:27.222819Z","level":"info","event":"  Transforming nonlocal projectors to a uniform radial grid of dG=0.02 with 219 points.","chan":"stdout","logger":"task"}
{"timestamp":"2025-09-01T17:19:27.223379Z","level":"info","event":"  Transforming density augmentations to a uniform radial grid of dG=0.02 with 2181 points.","chan":"stdout","logger":"task"}
{"timestamp":"2025-09-01T17:19:27.223855Z","level":"info","event":"  Transforming atomic orbitals to a uniform radial grid of dG=0.02 with 219 points.","chan":"stdout","logger":"task"}
{"timestamp":"2025-09-01T17:19:27.237348Z","level":"info","event":"  Core radius for overlap checks: 1.25 bohrs.","chan":"stdout","logger":"task"}
{"timestamp":"2025-09-01T17:19:27.237784Z","level":"info","event":"","chan":"stdout","logger":"task"}
{"timestamp":"2025-09-01T17:19:27.238125Z","level":"info","event":"Initialized 2 species with 34 total atoms.","chan":"stdout","logger":"task"}
{"timestamp":"2025-09-01T17:19:27.238435Z","level":"info","event":"","chan":"stdout","logger":"task"}
{"timestamp":"2025-09-01T17:19:27.238791Z","level":"info","event":"Folded 1 k-points by 1x1x1 to 1 k-points.","chan":"stdout","logger":"task"}
{"timestamp":"2025-09-01T17:19:27.239102Z","level":"info","event":"","chan":"stdout","logger":"task"}
{"timestamp":"2025-09-01T17:19:27.239367Z","level":"info","event":"---------- Setting up k-points, bands, fillings ----------","chan":"stdout","logger":"task"}
{"timestamp":"2025-09-01T17:19:27.239602Z","level":"info","event":"No reducable k-points.","chan":"stdout","logger":"task"}
{"timestamp":"2025-09-01T17:19:27.239884Z","level":"info","event":"Computing the number of bands and number of electrons","chan":"stdout","logger":"task"}
{"timestamp":"2025-09-01T17:19:27.240168Z","level":"info","event":"Calculating initial fillings.","chan":"stdout","logger":"task"}
{"timestamp":"2025-09-01T17:19:27.240422Z","level":"info","event":"nElectrons: 287.900000   nBands: 208   nStates: 1","chan":"stdout","logger":"task"}
{"timestamp":"2025-09-01T17:19:27.240748Z","level":"info","event":"","chan":"stdout","logger":"task"}
{"timestamp":"2025-09-01T17:19:27.241056Z","level":"info","event":"----- Setting up reduced wavefunction bases (one per k-point) -----","chan":"stdout","logger":"task"}
{"timestamp":"2025-09-01T17:19:27.241336Z","level":"info","event":"average nbasis = 4602.000 , ideal nbasis = 4595.882","chan":"stdout","logger":"task"}
{"timestamp":"2025-09-01T17:19:29.376486Z","level":"info","event":"","chan":"stdout","logger":"task"}
{"timestamp":"2025-09-01T17:19:29.376903Z","level":"info","event":"Initializing DFT-D2 calculator for fluid / solvation:","chan":"stdout","logger":"task"}
{"timestamp":"2025-09-01T17:19:29.378188Z","level":"info","event":"\t V:  C6:  187.33 Eh-a0^6  R0: 2.952 a0","chan":"stdout","logger":"task"}
{"timestamp":"2025-09-01T17:19:29.379347Z","level":"info","event":"\t O:  C6:   12.14 Eh-a0^6  R0: 2.536 a0","chan":"stdout","logger":"task"}
{"timestamp":"2025-09-01T17:19:29.379914Z","level":"info","event":"","chan":"stdout","logger":"task"}
{"timestamp":"2025-09-01T17:19:29.380922Z","level":"info","event":"---------- Setting up ewald sum ----------","chan":"stdout","logger":"task"}
{"timestamp":"2025-09-01T17:19:29.381832Z","level":"info","event":"Optimum gaussian width for ewald sums = 4.465986 bohr.","chan":"stdout","logger":"task"}
{"timestamp":"2025-09-01T17:19:29.382178Z","level":"info","event":"Real space sum over 1365 unit cells with max indices [  6  7  3  ]","chan":"stdout","logger":"task"}
{"timestamp":"2025-09-01T17:19:29.382457Z","level":"info","event":"Reciprocal space sum over 17595 terms with max indices [  7  8  34  ]","chan":"stdout","logger":"task"}
{"timestamp":"2025-09-01T17:19:29.383033Z","level":"info","event":"","chan":"stdout","logger":"task"}
{"timestamp":"2025-09-01T17:19:29.383352Z","level":"info","event":"---------- Allocating electronic variables ----------","chan":"stdout","logger":"task"}
{"timestamp":"2025-09-01T17:19:54.915220Z","level":"info","event":"Initializing wave functions:  linear combination of atomic orbitals","chan":"stdout","logger":"task"}
{"timestamp":"2025-09-01T17:19:54.915625Z","level":"info","event":"V pseudo-atom occupations:   s ( 2 0 )  p ( 6 )  d ( 5 )","chan":"stdout","logger":"task"}
{"timestamp":"2025-09-01T17:19:54.916537Z","level":"info","event":"O pseudo-atom occupations:   s ( 2 )  p ( 4 )","chan":"stdout","logger":"task"}
{"timestamp":"2025-09-01T17:19:54.916849Z","level":"info","event":"\tFillingsUpdate:  mu: +0.251025827  nElectrons: 287.900000","chan":"stdout","logger":"task"}
{"timestamp":"2025-09-01T17:19:54.917221Z","level":"info","event":"LCAOMinimize: Iter:   0  F: -1028.7884046315227806  |grad|_K:  8.336e-02  alpha:  1.000e+00","chan":"stdout","logger":"task"}
{"timestamp":"2025-09-01T17:20:07.410496Z","level":"info","event":"\tFillingsUpdate:  mu: +0.579378701  nElectrons: 287.900000","chan":"stdout","logger":"task"}
{"timestamp":"2025-09-01T17:20:07.411089Z","level":"info","event":"LCAOMinimize: Iter:   1  F: -1064.3347954899870729  |grad|_K:  9.025e-02  alpha:  3.927e-01  linmin:  3.149e-02  cgtest: -1.184e+00  t[s]:     40.69","chan":"stdout","logger":"task"}
{"timestamp":"2025-09-01T17:20:19.562641Z","level":"info","event":"\tFillingsUpdate:  mu: +0.437527767  nElectrons: 287.900000","chan":"stdout","logger":"task"}
{"timestamp":"2025-09-01T17:20:19.563124Z","level":"info","event":"LCAOMinimize: Iter:   2  F: -1077.1542047313780586  |grad|_K:  1.501e-01  alpha:  1.417e-01  linmin: -4.795e-02  cgtest: -2.450e-01  t[s]:     52.85","chan":"stdout","logger":"task"}
{"timestamp":"2025-09-01T17:20:31.315216Z","level":"info","event":"\tFillingsUpdate:  mu: +0.031933384  nElectrons: 287.900000","chan":"stdout","logger":"task"}
{"timestamp":"2025-09-01T17:20:31.315667Z","level":"info","event":"LCAOMinimize: Iter:   3  F: -1093.4873722708719015  |grad|_K:  3.556e-02  alpha:  6.368e-02  linmin:  6.220e-02  cgtest: -1.716e-01  t[s]:     64.60","chan":"stdout","logger":"task"}
{"timestamp":"2025-09-01T17:20:43.520880Z","level":"info","event":"\tFillingsUpdate:  mu: +0.050263005  nElectrons: 287.900000","chan":"stdout","logger":"task"}
{"timestamp":"2025-09-01T17:20:43.521427Z","level":"info","event":"LCAOMinimize: Iter:   4  F: -1095.1104980344412070  |grad|_K:  2.292e-02  alpha:  8.322e-02  linmin: -6.512e-02  cgtest:  1.432e+00  t[s]:     76.80","chan":"stdout","logger":"task"}
{"timestamp":"2025-09-01T17:20:43.522505Z","level":"info","event":"LCAOMinimize: Encountered beta<0, resetting CG.","chan":"stdout","logger":"task"}
{"timestamp":"2025-09-01T17:20:46.754832Z","level":"info","event":"LCAOMinimize: \tPredicted alpha/alphaT>3.000000, increasing alphaT to 2.496629e-01.","chan":"stdout","logger":"task"}
{"timestamp":"2025-09-01T17:20:58.605290Z","level":"info","event":"\tFillingsUpdate:  mu: -0.223894812  nElectrons: 287.900000","chan":"stdout","logger":"task"}
{"timestamp":"2025-09-01T17:20:58.605696Z","level":"info","event":"LCAOMinimize: Iter:   5  F: -1112.5220724285682081  |grad|_K:  4.517e-02  alpha:  6.056e-01  linmin: -5.687e-03  cgtest:  3.786e-02  t[s]:     91.89","chan":"stdout","logger":"task"}
{"timestamp":"2025-09-01T17:21:10.274833Z","level":"info","event":"LCAOMinimize: \tStep increased F by 9.284316e+01, reducing alpha to 8.110484e-03.","chan":"stdout","logger":"task"}
{"timestamp":"2025-09-01T17:21:19.400485Z","level":"info","event":"\tFillingsUpdate:  mu: -0.261288223  nElectrons: 287.900000","chan":"stdout","logger":"task"}
{"timestamp":"2025-09-01T17:21:19.400936Z","level":"info","event":"LCAOMinimize: Iter:   6  F: -1112.5903219291606092  |grad|_K:  4.635e-02  alpha:  8.110e-03  linmin:  1.871e-02  cgtest:  7.627e-01  t[s]:    112.68","chan":"stdout","logger":"task"}
{"timestamp":"2025-09-01T17:21:22.535057Z","level":"info","event":"LCAOMinimize: \tPredicted alpha/alphaT>3.000000, increasing alphaT to 2.433145e-02.","chan":"stdout","logger":"task"}
{"timestamp":"2025-09-01T17:21:34.099424Z","level":"info","event":"\tFillingsUpdate:  mu: -0.348733040  nElectrons: 287.900000","chan":"stdout","logger":"task"}
{"timestamp":"2025-09-01T17:21:34.099889Z","level":"info","event":"LCAOMinimize: Iter:   7  F: -1113.1320453533701311  |grad|_K:  5.490e-02  alpha:  4.045e-02  linmin:  8.231e-02  cgtest:  4.667e-01  t[s]:    127.38","chan":"stdout","logger":"task"}
{"timestamp":"2025-09-01T17:21:46.302459Z","level":"info","event":"\tFillingsUpdate:  mu: -0.346790925  nElectrons: 287.900000","chan":"stdout","logger":"task"}
{"timestamp":"2025-09-01T17:21:46.303003Z","level":"info","event":"LCAOMinimize: Iter:   8  F: -1113.1969887372315497  |grad|_K:  5.574e-02  alpha:  2.559e-03  linmin: -1.205e-02  cgtest:  9.853e-01  t[s]:    139.59","chan":"stdout","logger":"task"}
{"timestamp":"2025-09-01T17:21:49.573863Z","level":"info","event":"LCAOMinimize: \tPredicted alpha/alphaT>3.000000, increasing alphaT to 7.678045e-03.","chan":"stdout","logger":"task"}
{"timestamp":"2025-09-01T17:21:52.756607Z","level":"info","event":"LCAOMinimize: \tPredicted alpha/alphaT>3.000000, increasing alphaT to 2.303414e-02.","chan":"stdout","logger":"task"}
{"timestamp":"2025-09-01T17:21:56.032256Z","level":"info","event":"LCAOMinimize: \tPredicted alpha/alphaT>3.000000, increasing alphaT to 6.910241e-02.","chan":"stdout","logger":"task"}
{"timestamp":"2025-09-01T17:22:05.071505Z","level":"info","event":"\tFillingsUpdate:  mu: -0.118806683  nElectrons: 287.900000","chan":"stdout","logger":"task"}
{"timestamp":"2025-09-01T17:22:05.071992Z","level":"info","event":"LCAOMinimize: Iter:   9  F: -1119.8517996160333041  |grad|_K:  3.600e-02  alpha:  8.332e-02  linmin: -2.467e-02  cgtest:  6.259e-02  t[s]:    158.36","chan":"stdout","logger":"task"}
{"timestamp":"2025-09-01T17:22:16.570104Z","level":"info","event":"\tFillingsUpdate:  mu: -0.031207777  nElectrons: 287.900000","chan":"stdout","logger":"task"}
{"timestamp":"2025-09-01T17:22:16.570676Z","level":"info","event":"LCAOMinimize: Iter:  10  F: -1120.7551240824536762  |grad|_K:  2.116e-02  alpha:  3.709e-02  linmin:  6.362e-02  cgtest: -5.528e-02  t[s]:    169.85","chan":"stdout","logger":"task"}
{"timestamp":"2025-09-01T17:22:28.871374Z","level":"info","event":"\tFillingsUpdate:  mu: +0.002402877  nElectrons: 287.900000","chan":"stdout","logger":"task"}
{"timestamp":"2025-09-01T17:22:28.872318Z","level":"info","event":"LCAOMinimize: Iter:  11  F: -1121.1912885236863531  |grad|_K:  1.674e-02  alpha:  5.913e-02  linmin:  3.900e-04  cgtest:  5.988e-01  t[s]:    182.16","chan":"stdout","logger":"task"}
{"timestamp":"2025-09-01T17:22:40.987633Z","level":"info","event":"\tFillingsUpdate:  mu: +0.008428241  nElectrons: 287.900000","chan":"stdout","logger":"task"}
{"timestamp":"2025-09-01T17:22:40.988275Z","level":"info","event":"LCAOMinimize: Iter:  12  F: -1121.4998875791879982  |grad|_K:  7.202e-03  alpha:  4.826e-02  linmin:  3.694e-02  cgtest: -1.566e-01  t[s]:    194.27","chan":"stdout","logger":"task"}
{"timestamp":"2025-09-01T17:22:52.627823Z","level":"info","event":"\tFillingsUpdate:  mu: +0.013008286  nElectrons: 287.900000","chan":"stdout","logger":"task"}
{"timestamp":"2025-09-01T17:22:52.628326Z","level":"info","event":"LCAOMinimize: Iter:  13  F: -1121.5686632137640117  |grad|_K:  3.824e-03  alpha:  6.638e-02  linmin:  2.277e-03  cgtest:  2.073e-01  t[s]:    205.91","chan":"stdout","logger":"task"}
{"timestamp":"2025-09-01T17:23:04.864692Z","level":"info","event":"\tFillingsUpdate:  mu: +0.016370761  nElectrons: 287.900000","chan":"stdout","logger":"task"}
{"timestamp":"2025-09-01T17:23:04.866088Z","level":"info","event":"LCAOMinimize: Iter:  14  F: -1121.5919109409542216  |grad|_K:  2.822e-03  alpha:  7.298e-02  linmin: -1.565e-03  cgtest:  1.526e-02  t[s]:    218.15","chan":"stdout","logger":"task"}
{"timestamp":"2025-09-01T17:23:16.725773Z","level":"info","event":"\tFillingsUpdate:  mu: +0.019673051  nElectrons: 287.900000","chan":"stdout","logger":"task"}
{"timestamp":"2025-09-01T17:23:16.726249Z","level":"info","event":"LCAOMinimize: Iter:  15  F: -1121.6044588367926735  |grad|_K:  2.188e-03  alpha:  7.177e-02  linmin: -4.445e-04  cgtest:  2.308e-03  t[s]:    230.01","chan":"stdout","logger":"task"}
{"timestamp":"2025-09-01T17:23:18.632555Z","level":"info","event":"LCAOMinimize: None of the convergence criteria satisfied after 15 iterations.","chan":"stdout","logger":"task"}
{"timestamp":"2025-09-01T17:23:18.632888Z","level":"info","event":"----- createFluidSolver() ----- (Fluid-side solver setup)","chan":"stdout","logger":"task"}
{"timestamp":"2025-09-01T17:23:18.633197Z","level":"info","event":"   Initializing fluid molecule 'H2O'","chan":"stdout","logger":"task"}
{"timestamp":"2025-09-01T17:23:18.633533Z","level":"info","event":"     Initializing site 'O'","chan":"stdout","logger":"task"}
{"timestamp":"2025-09-01T17:23:18.633758Z","level":"info","event":"       Electron density: proportional to exp(-r/0.36935)*erfc((r-0.51523)/0.36823) with norm 6.826","chan":"stdout","logger":"task"}
{"timestamp":"2025-09-01T17:23:18.634000Z","level":"info","event":"       Charge density: gaussian nuclear width 0.478731 with net site charge 0.826","chan":"stdout","logger":"task"}
{"timestamp":"2025-09-01T17:23:18.634302Z","level":"info","event":"       Polarizability: cuspless exponential with width 0.32 and norm 3.73","chan":"stdout","logger":"task"}
{"timestamp":"2025-09-01T17:23:18.634688Z","level":"info","event":"       Hard sphere radius: 2.57003 bohrs","chan":"stdout","logger":"task"}
{"timestamp":"2025-09-01T17:23:18.634976Z","level":"info","event":"       Positions in reference frame:","chan":"stdout","logger":"task"}
{"timestamp":"2025-09-01T17:23:18.635330Z","level":"info","event":"         [ +0.000000 +0.000000 +0.000000 ]","chan":"stdout","logger":"task"}
{"timestamp":"2025-09-01T17:23:18.635650Z","level":"info","event":"     Initializing site 'H'","chan":"stdout","logger":"task"}
{"timestamp":"2025-09-01T17:23:18.636433Z","level":"info","event":"       Electron density: proportional to exp(-r/0.34641)*erfc((r-0)/0.390882) with norm 0.587","chan":"stdout","logger":"task"}
{"timestamp":"2025-09-01T17:23:18.636722Z","level":"info","event":"       Charge density: gaussian nuclear width 0.377945 with net site charge -0.413","chan":"stdout","logger":"task"}
{"timestamp":"2025-09-01T17:23:18.637006Z","level":"info","event":"       Polarizability: cuspless exponential with width 0.39 and norm 3.3","chan":"stdout","logger":"task"}
{"timestamp":"2025-09-01T17:23:18.637305Z","level":"info","event":"       Positions in reference frame:","chan":"stdout","logger":"task"}
{"timestamp":"2025-09-01T17:23:18.637614Z","level":"info","event":"         [ +0.000000 -1.441945 +1.122523 ]","chan":"stdout","logger":"task"}
{"timestamp":"2025-09-01T17:23:18.637956Z","level":"info","event":"         [ +0.000000 +1.441945 +1.122523 ]","chan":"stdout","logger":"task"}
{"timestamp":"2025-09-01T17:23:18.638247Z","level":"info","event":"     Net charge: 0   dipole magnitude: 0.927204","chan":"stdout","logger":"task"}
{"timestamp":"2025-09-01T17:23:18.638528Z","level":"info","event":"     Initializing spherical shell mfKernel with radius 2.61727 Bohr","chan":"stdout","logger":"task"}
{"timestamp":"2025-09-01T17:23:18.638824Z","level":"info","event":"     deltaS corrections:","chan":"stdout","logger":"task"}
{"timestamp":"2025-09-01T17:23:18.639132Z","level":"info","event":"       site 'O': -7.54299","chan":"stdout","logger":"task"}
{"timestamp":"2025-09-01T17:23:18.639443Z","level":"info","event":"       site 'H': -6.83917","chan":"stdout","logger":"task"}
{"timestamp":"2025-09-01T17:23:18.639771Z","level":"info","event":"   Initializing fluid molecule 'Na+'","chan":"stdout","logger":"task"}
{"timestamp":"2025-09-01T17:23:18.640086Z","level":"info","event":"     Initializing site 'Na'","chan":"stdout","logger":"task"}
{"timestamp":"2025-09-01T17:23:18.640464Z","level":"info","event":"       Electron density: proportional to exp(-r/0.19682)*erfc((r-0.71491)/0.41314) with norm 8.1383","chan":"stdout","logger":"task"}
{"timestamp":"2025-09-01T17:23:18.640800Z","level":"info","event":"       Charge density: gaussian nuclear width 0.365347 with net site charge -1","chan":"stdout","logger":"task"}
{"timestamp":"2025-09-01T17:23:18.641123Z","level":"info","event":"       Hard sphere radius: 1.86327 bohrs","chan":"stdout","logger":"task"}
{"timestamp":"2025-09-01T17:23:18.641457Z","level":"info","event":"       Positions in reference frame:","chan":"stdout","logger":"task"}
{"timestamp":"2025-09-01T17:23:18.641744Z","level":"info","event":"         [ +0.000000 +0.000000 +0.000000 ]","chan":"stdout","logger":"task"}
{"timestamp":"2025-09-01T17:23:18.642104Z","level":"info","event":"     Net charge: -1   dipole magnitude: 0","chan":"stdout","logger":"task"}
{"timestamp":"2025-09-01T17:23:18.642420Z","level":"info","event":"     Initializing gaussian mfKernel with width: 1.55004 Bohr","chan":"stdout","logger":"task"}
{"timestamp":"2025-09-01T17:23:18.642741Z","level":"info","event":"     deltaS corrections:","chan":"stdout","logger":"task"}
{"timestamp":"2025-09-01T17:23:18.643125Z","level":"info","event":"       site 'Na': -22.3555","chan":"stdout","logger":"task"}
{"timestamp":"2025-09-01T17:23:18.643420Z","level":"info","event":"   Initializing fluid molecule 'F-'","chan":"stdout","logger":"task"}
{"timestamp":"2025-09-01T17:23:18.643711Z","level":"info","event":"     Initializing site 'F'","chan":"stdout","logger":"task"}
{"timestamp":"2025-09-01T17:23:18.643971Z","level":"info","event":"       Electron density: proportional to exp(-r/0.38886)*erfc((r-0)/0.438782) with norm 8","chan":"stdout","logger":"task"}
{"timestamp":"2025-09-01T17:23:18.644312Z","level":"info","event":"       Charge density: gaussian nuclear width 0.374796 with net site charge 1","chan":"stdout","logger":"task"}
{"timestamp":"2025-09-01T17:23:18.644652Z","level":"info","event":"       Hard sphere radius: 2.39995 bohrs","chan":"stdout","logger":"task"}
{"timestamp":"2025-09-01T17:23:18.644990Z","level":"info","event":"       Positions in reference frame:","chan":"stdout","logger":"task"}
{"timestamp":"2025-09-01T17:23:18.645290Z","level":"info","event":"         [ +0.000000 +0.000000 +0.000000 ]","chan":"stdout","logger":"task"}
{"timestamp":"2025-09-01T17:23:18.645616Z","level":"info","event":"     Net charge: 1   dipole magnitude: 0","chan":"stdout","logger":"task"}
{"timestamp":"2025-09-01T17:23:18.645966Z","level":"info","event":"     Initializing gaussian mfKernel with width: 1.59012 Bohr","chan":"stdout","logger":"task"}
{"timestamp":"2025-09-01T17:23:18.646317Z","level":"info","event":"     deltaS corrections:","chan":"stdout","logger":"task"}
{"timestamp":"2025-09-01T17:23:18.646699Z","level":"info","event":"       site 'F': -9.04335","chan":"stdout","logger":"task"}
{"timestamp":"2025-09-01T17:23:18.646998Z","level":"info","event":"","chan":"stdout","logger":"task"}
{"timestamp":"2025-09-01T17:23:18.647311Z","level":"info","event":"Correction to mu due to finite nuclear width = -0.13281","chan":"stdout","logger":"task"}
{"timestamp":"2025-09-01T17:23:18.647642Z","level":"info","event":"   Cavity determined by nc: 0.00142 and sigma: 0.707107","chan":"stdout","logger":"task"}
{"timestamp":"2025-09-01T17:23:18.648014Z","level":"info","event":"   Nonlocal vdW cavity from gaussian model electron density with norm = 8 and sigma = 0.993594 bohr","chan":"stdout","logger":"task"}
{"timestamp":"2025-09-01T17:23:18.648349Z","level":"info","event":"   Charge asymmetry in cavity with sensitivity pCavity = 36.5 e-bohr/Eh","chan":"stdout","logger":"task"}
{"timestamp":"2025-09-01T17:23:18.648699Z","level":"info","event":"   Electrostatic cavity expanded by eta = 1.46 bohrs","chan":"stdout","logger":"task"}
{"timestamp":"2025-09-01T17:23:18.649000Z","level":"info","event":"   Weighted density cavitation model constrained by Nbulk: 0.0049383 bohr^-3, Pvap: 3.14029 kPa, Rvdw: 2.61727 bohr and sigmaBulk: 4.62e-05 Eh/bohr^2 at T: 298 K.","chan":"stdout","logger":"task"}
{"timestamp":"2025-09-01T17:23:18.649347Z","level":"info","event":"   Weighted density dispersion model using vdW pair potentials with single solvent site with sqrtC6eff: 0.77 SI.","chan":"stdout","logger":"task"}
{"timestamp":"2025-09-01T17:23:18.650190Z","level":"info","event":"","chan":"stdout","logger":"task"}
{"timestamp":"2025-09-01T17:23:18.650697Z","level":"info","event":"","chan":"stdout","logger":"task"}
{"timestamp":"2025-09-01T17:23:18.651104Z","level":"info","event":"---- Citations for features of the code used in this run ----","chan":"stdout","logger":"task"}
{"timestamp":"2025-09-01T17:23:18.651588Z","level":"info","event":"","chan":"stdout","logger":"task"}
{"timestamp":"2025-09-01T17:23:18.652157Z","level":"info","event":"   Software package:","chan":"stdout","logger":"task"}
{"timestamp":"2025-09-01T17:23:18.652576Z","level":"info","event":"      R. Sundararaman, K. Letchworth-Weaver, K.A. Schwarz, D. Gunceler, Y. Ozhabes and T.A. Arias, 'JDFTx: software for joint density-functional theory', SoftwareX 6, 278 (2017)","chan":"stdout","logger":"task"}
{"timestamp":"2025-09-01T17:23:18.652949Z","level":"info","event":"","chan":"stdout","logger":"task"}
{"timestamp":"2025-09-01T17:23:18.653540Z","level":"info","event":"   gga-PBE exchange-correlation functional:","chan":"stdout","logger":"task"}
{"timestamp":"2025-09-01T17:23:18.654475Z","level":"info","event":"      J.P. Perdew, K. Burke and M. Ernzerhof, Phys. Rev. Lett. 77, 3865 (1996)","chan":"stdout","logger":"task"}
{"timestamp":"2025-09-01T17:23:18.658107Z","level":"info","event":"","chan":"stdout","logger":"task"}
{"timestamp":"2025-09-01T17:23:18.658616Z","level":"info","event":"   Pseudopotentials:","chan":"stdout","logger":"task"}
{"timestamp":"2025-09-01T17:23:18.658979Z","level":"info","event":"      KF Garrity, JW Bennett, KM Rabe and D Vanderbilt, Comput. Mater. Sci. 81, 446 (2014)","chan":"stdout","logger":"task"}
{"timestamp":"2025-09-01T17:23:18.659460Z","level":"info","event":"","chan":"stdout","logger":"task"}
{"timestamp":"2025-09-01T17:23:18.659802Z","level":"info","event":"   DFT-D2 dispersion correction:","chan":"stdout","logger":"task"}
{"timestamp":"2025-09-01T17:23:18.660164Z","level":"info","event":"      S. Grimme, J. Comput. Chem. 27, 1787 (2006)","chan":"stdout","logger":"task"}
{"timestamp":"2025-09-01T17:23:18.660531Z","level":"info","event":"","chan":"stdout","logger":"task"}
{"timestamp":"2025-09-01T17:23:18.660880Z","level":"info","event":"   Charge-asymmetric nonlocally-determined local-electric (CANDLE) solvation model:","chan":"stdout","logger":"task"}
{"timestamp":"2025-09-01T17:23:18.661185Z","level":"info","event":"      R. Sundararaman and W.A. Goddard III, J. Chem. Phys. 142, 064107 (2015)","chan":"stdout","logger":"task"}
{"timestamp":"2025-09-01T17:23:18.661499Z","level":"info","event":"","chan":"stdout","logger":"task"}
{"timestamp":"2025-09-01T17:23:18.661792Z","level":"info","event":"   Total energy minimization with Auxiliary Hamiltonian:","chan":"stdout","logger":"task"}
{"timestamp":"2025-09-01T17:23:18.662145Z","level":"info","event":"      C. Freysoldt, S. Boeck, and J. Neugebauer, Phys. Rev. B 79, 241103(R) (2009)","chan":"stdout","logger":"task"}
{"timestamp":"2025-09-01T17:23:18.662491Z","level":"info","event":"","chan":"stdout","logger":"task"}
{"timestamp":"2025-09-01T17:23:18.662841Z","level":"info","event":"This list may not be complete. Please suggest additional citations or","chan":"stdout","logger":"task"}
{"timestamp":"2025-09-01T17:23:18.663175Z","level":"info","event":"report any other bugs at https://github.com/shankar1729/jdftx/issues","chan":"stdout","logger":"task"}
{"timestamp":"2025-09-01T17:23:18.663610Z","level":"info","event":"","chan":"stdout","logger":"task"}
{"timestamp":"2025-09-01T17:23:18.664040Z","level":"info","event":"Initialization completed successfully at t[s]:    231.92","chan":"stdout","logger":"task"}
{"timestamp":"2025-09-01T17:23:18.664355Z","level":"info","event":"","chan":"stdout","logger":"task"}
{"timestamp":"2025-09-01T17:23:19.063790Z","level":"info","event":"Fluid solver invoked on fresh (random / LCAO) wavefunctions","chan":"stdout","logger":"task"}
{"timestamp":"2025-09-01T17:23:19.064157Z","level":"info","event":"Running a vacuum solve first:","chan":"stdout","logger":"task"}
{"timestamp":"2025-09-01T17:23:19.064462Z","level":"info","event":"","chan":"stdout","logger":"task"}
{"timestamp":"2025-09-01T17:23:19.064720Z","level":"info","event":"-------- Initial electronic minimization -----------","chan":"stdout","logger":"task"}
{"timestamp":"2025-09-01T17:23:28.132222Z","level":"info","event":"\tFillingsUpdate:  mu: +0.019673394  nElectrons: 287.900000","chan":"stdout","logger":"task"}
{"timestamp":"2025-09-01T17:23:28.133751Z","level":"info","event":"ElecMinimize: Iter:   0  F: -1121.604458836791991  |grad|_K:  1.741e-03  alpha:  1.000e+00","chan":"stdout","logger":"task"}
{"timestamp":"2025-09-01T17:23:42.565337Z","level":"info","event":"\tFillingsUpdate:  mu: -0.002519924  nElectrons: 287.900000","chan":"stdout","logger":"task"}
{"timestamp":"2025-09-01T17:23:42.570451Z","level":"info","event":"\tSubspaceRotationAdjust: set factor to 0.54","chan":"stdout","logger":"task"}
{"timestamp":"2025-09-01T17:23:42.571493Z","level":"info","event":"ElecMinimize: Iter:   1  F: -1122.650564710307208  |grad|_K:  2.845e-03  alpha:  3.672e-01  linmin:  1.607e-04  t[s]:    255.85","chan":"stdout","logger":"task"}
{"timestamp":"2025-09-01T17:23:55.861080Z","level":"info","event":"\tFillingsUpdate:  mu: +0.002484299  nElectrons: 287.900000","chan":"stdout","logger":"task"}
{"timestamp":"2025-09-01T17:23:55.865206Z","level":"info","event":"\tSubspaceRotationAdjust: set factor to 0.244","chan":"stdout","logger":"task"}
{"timestamp":"2025-09-01T17:23:55.865954Z","level":"info","event":"ElecMinimize: Iter:   2  F: -1122.930965556136243  |grad|_K:  1.519e-03  alpha:  6.202e-02  linmin:  1.276e-03  t[s]:    269.15","chan":"stdout","logger":"task"}
{"timestamp":"2025-09-01T17:24:10.598378Z","level":"info","event":"\tFillingsUpdate:  mu: +0.026206922  nElectrons: 287.900000","chan":"stdout","logger":"task"}
{"timestamp":"2025-09-01T17:24:10.606389Z","level":"info","event":"\tSubspaceRotationAdjust: set factor to 0.287","chan":"stdout","logger":"task"}
{"timestamp":"2025-09-01T17:24:10.609904Z","level":"info","event":"ElecMinimize: Iter:   3  F: -1123.108811047305153  |grad|_K:  8.954e-04  alpha:  1.267e-01  linmin: -4.920e-05  t[s]:    283.89","chan":"stdout","logger":"task"}
{"timestamp":"2025-09-01T17:24:24.864280Z","level":"info","event":"\tFillingsUpdate:  mu: -0.010935322  nElectrons: 287.900000","chan":"stdout","logger":"task"}
{"timestamp":"2025-09-01T17:24:24.869007Z","level":"info","event":"\tSubspaceRotationAdjust: set factor to 0.194","chan":"stdout","logger":"task"}
{"timestamp":"2025-09-01T17:24:24.869572Z","level":"info","event":"ElecMinimize: Iter:   4  F: -1123.338316143601105  |grad|_K:  8.569e-04  alpha:  2.894e-01  linmin:  6.158e-05  t[s]:    298.15","chan":"stdout","logger":"task"}
{"timestamp":"2025-09-01T17:24:39.575897Z","level":"info","event":"\tFillingsUpdate:  mu: +0.018418693  nElectrons: 287.900000","chan":"stdout","logger":"task"}
{"timestamp":"2025-09-01T17:24:39.580838Z","level":"info","event":"\tSubspaceRotationAdjust: set factor to 0.199","chan":"stdout","logger":"task"}
{"timestamp":"2025-09-01T17:24:39.581581Z","level":"info","event":"ElecMinimize: Iter:   5  F: -1123.447159384563065  |grad|_K:  4.445e-04  alpha:  1.480e-01  linmin: -6.156e-05  t[s]:    312.86","chan":"stdout","logger":"task"}
{"timestamp":"2025-09-01T17:24:54.714822Z","level":"info","event":"\tFillingsUpdate:  mu: -0.001036619  nElectrons: 287.900000","chan":"stdout","logger":"task"}
{"timestamp":"2025-09-01T17:24:54.720134Z","level":"info","event":"\tSubspaceRotationAdjust: set factor to 0.153","chan":"stdout","logger":"task"}
{"timestamp":"2025-09-01T17:24:54.720775Z","level":"info","event":"ElecMinimize: Iter:   6  F: -1123.502947455365074  |grad|_K:  4.058e-04  alpha:  2.849e-01  linmin:  5.335e-05  t[s]:    328.00","chan":"stdout","logger":"task"}
{"timestamp":"2025-09-01T17:25:08.523800Z","level":"info","event":"\tFillingsUpdate:  mu: +0.008517811  nElectrons: 287.900000","chan":"stdout","logger":"task"}
{"timestamp":"2025-09-01T17:25:08.528186Z","level":"info","event":"\tSubspaceRotationAdjust: set factor to 0.175","chan":"stdout","logger":"task"}
{"timestamp":"2025-09-01T17:25:08.528792Z","level":"info","event":"ElecMinimize: Iter:   7  F: -1123.534413247456087  |grad|_K:  2.560e-04  alpha:  1.962e-01  linmin:  1.807e-05  t[s]:    341.81","chan":"stdout","logger":"task"}
{"timestamp":"2025-09-01T17:25:22.695239Z","level":"info","event":"\tFillingsUpdate:  mu: +0.003712921  nElectrons: 287.900000","chan":"stdout","logger":"task"}
{"timestamp":"2025-09-01T17:25:22.699755Z","level":"info","event":"\tSubspaceRotationAdjust: set factor to 0.14","chan":"stdout","logger":"task"}
{"timestamp":"2025-09-01T17:25:22.700424Z","level":"info","event":"ElecMinimize: Iter:   8  F: -1123.553436950861624  |grad|_K:  2.394e-04  alpha:  2.977e-01  linmin:  6.745e-05  t[s]:    355.98","chan":"stdout","logger":"task"}
{"timestamp":"2025-09-01T17:25:35.902070Z","level":"info","event":"\tFillingsUpdate:  mu: +0.010111777  nElectrons: 287.900000","chan":"stdout","logger":"task"}
{"timestamp":"2025-09-01T17:25:35.906752Z","level":"info","event":"\tSubspaceRotationAdjust: set factor to 0.181","chan":"stdout","logger":"task"}
{"timestamp":"2025-09-01T17:25:35.907343Z","level":"info","event":"ElecMinimize: Iter:   9  F: -1123.565973560906059  |grad|_K:  1.583e-04  alpha:  2.246e-01  linmin:  6.627e-05  t[s]:    369.19","chan":"stdout","logger":"task"}
{"timestamp":"2025-09-01T17:25:48.718695Z","level":"info","event":"\tFillingsUpdate:  mu: +0.007631016  nElectrons: 287.900000","chan":"stdout","logger":"task"}
{"timestamp":"2025-09-01T17:25:48.723552Z","level":"info","event":"\tSubspaceRotationAdjust: set factor to 0.148","chan":"stdout","logger":"task"}
{"timestamp":"2025-09-01T17:25:48.724078Z","level":"info","event":"ElecMinimize: Iter:  10  F: -1123.573127959829435  |grad|_K:  1.506e-04  alpha:  2.935e-01  linmin:  3.438e-04  t[s]:    382.01","chan":"stdout","logger":"task"}
{"timestamp":"2025-09-01T17:25:48.724459Z","level":"info","event":"ElecMinimize: None of the convergence criteria satisfied after 10 iterations.","chan":"stdout","logger":"task"}
{"timestamp":"2025-09-01T17:25:48.725585Z","level":"info","event":"Setting wave functions to eigenvectors of Hamiltonian","chan":"stdout","logger":"task"}
{"timestamp":"2025-09-01T17:25:48.763980Z","level":"info","event":"Vacuum energy after initial minimize, F = -1123.573127959829435","chan":"stdout","logger":"task"}
{"timestamp":"2025-09-01T17:25:48.764362Z","level":"info","event":"","chan":"stdout","logger":"task"}
{"timestamp":"2025-09-01T17:25:48.764697Z","level":"info","event":"","chan":"stdout","logger":"task"}
{"timestamp":"2025-09-01T17:25:48.764965Z","level":"info","event":"-------- Electronic minimization -----------","chan":"stdout","logger":"task"}
{"timestamp":"2025-09-01T17:26:01.345752Z","level":"info","event":"\tLinear fluid (dielectric constant: 78.4, screening length: 5.74355 Bohr) occupying 0.411580 of unit cell:\tCompleted after 31 iterations at t[s]:    387.84","chan":"stdout","logger":"task"}
{"timestamp":"2025-09-01T17:26:01.347197Z","level":"info","event":"\tFillingsUpdate:  mu: -0.295332091  nElectrons: 287.900000","chan":"stdout","logger":"task"}
{"timestamp":"2025-09-01T17:26:01.351104Z","level":"info","event":"ElecMinimize: Iter:   0  F: -1122.415260078520305  |grad|_K:  1.807e-03  alpha:  1.000e+00","chan":"stdout","logger":"task"}
{"timestamp":"2025-09-01T17:26:12.281526Z","level":"info","event":"\tLinear fluid (dielectric constant: 78.4, screening length: 5.74355 Bohr) occupying 0.436152 of unit cell:\tCompleted after 120 iterations at t[s]:    402.00","chan":"stdout","logger":"task"}
{"timestamp":"2025-09-01T17:26:19.110351Z","level":"info","event":"\tLinear fluid (dielectric constant: 78.4, screening length: 5.74355 Bohr) occupying 0.338000 of unit cell:\tCompleted after 23 iterations at t[s]:    406.29","chan":"stdout","logger":"task"}
{"timestamp":"2025-09-01T17:26:19.110836Z","level":"info","event":"\tFillingsUpdate:  mu: -0.180097551  nElectrons: 287.900000","chan":"stdout","logger":"task"}
{"timestamp":"2025-09-01T17:26:19.120337Z","level":"info","event":"\tSubspaceRotationAdjust: set factor to 0.0661","chan":"stdout","logger":"task"}
{"timestamp":"2025-09-01T17:26:19.121922Z","level":"info","event":"ElecMinimize: Iter:   1  F: -1123.493713799932266  |grad|_K:  4.644e-04  alpha:  3.285e-01  linmin:  1.672e-02  t[s]:    412.40","chan":"stdout","logger":"task"}
{"timestamp":"2025-09-01T17:26:27.336332Z","level":"info","event":"\tLinear fluid (dielectric constant: 78.4, screening length: 5.74355 Bohr) occupying 0.336266 of unit cell:\tCompleted after 19 iterations at t[s]:    416.91","chan":"stdout","logger":"task"}
{"timestamp":"2025-09-01T17:26:33.942584Z","level":"info","event":"\tLinear fluid (dielectric constant: 78.4, screening length: 5.74355 Bohr) occupying 0.335955 of unit cell:\tCompleted after 16 iterations at t[s]:    421.14","chan":"stdout","logger":"task"}
{"timestamp":"2025-09-01T17:26:33.943795Z","level":"info","event":"\tFillingsUpdate:  mu: -0.176981325  nElectrons: 287.900000","chan":"stdout","logger":"task"}
{"timestamp":"2025-09-01T17:26:33.946667Z","level":"info","event":"\tSubspaceRotationAdjust: set factor to 0.0508","chan":"stdout","logger":"task"}
{"timestamp":"2025-09-01T17:26:33.947315Z","level":"info","event":"ElecMinimize: Iter:   2  F: -1123.562321295479705  |grad|_K:  1.505e-04  alpha:  3.891e-01  linmin:  9.478e-05  t[s]:    427.23","chan":"stdout","logger":"task"}
{"timestamp":"2025-09-01T17:26:41.772550Z","level":"info","event":"\tLinear fluid (dielectric constant: 78.4, screening length: 5.74355 Bohr) occupying 0.336640 of unit cell:\tCompleted after 12 iterations at t[s]:    431.35","chan":"stdout","logger":"task"}
{"timestamp":"2025-09-01T17:26:48.150352Z","level":"info","event":"\tLinear fluid (dielectric constant: 78.4, screening length: 5.74355 Bohr) occupying 0.336755 of unit cell:\tCompleted after 8 iterations at t[s]:    435.37","chan":"stdout","logger":"task"}
{"timestamp":"2025-09-01T17:26:48.150727Z","level":"info","event":"\tFillingsUpdate:  mu: -0.178315460  nElectrons: 287.900000","chan":"stdout","logger":"task"}
{"timestamp":"2025-09-01T17:26:48.154850Z","level":"info","event":"\tSubspaceRotationAdjust: set factor to 0.0609","chan":"stdout","logger":"task"}
{"timestamp":"2025-09-01T17:26:48.155448Z","level":"info","event":"ElecMinimize: Iter:   3  F: -1123.572447724578751  |grad|_K:  9.527e-05  alpha:  4.581e-01  linmin: -2.837e-06  t[s]:    441.44","chan":"stdout","logger":"task"}
{"timestamp":"2025-09-01T17:26:55.735711Z","level":"info","event":"\tLinear fluid (dielectric constant: 78.4, screening length: 5.74355 Bohr) occupying 0.336587 of unit cell:\tCompleted after 12 iterations at t[s]:    445.44","chan":"stdout","logger":"task"}
{"timestamp":"2025-09-01T17:27:02.400522Z","level":"info","event":"\tLinear fluid (dielectric constant: 78.4, screening length: 5.74355 Bohr) occupying 0.336552 of unit cell:\tCompleted after 10 iterations at t[s]:    449.41","chan":"stdout","logger":"task"}
{"timestamp":"2025-09-01T17:27:02.400962Z","level":"info","event":"\tFillingsUpdate:  mu: -0.177844735  nElectrons: 287.900000","chan":"stdout","logger":"task"}
{"timestamp":"2025-09-01T17:27:02.404785Z","level":"info","event":"\tSubspaceRotationAdjust: set factor to 0.076","chan":"stdout","logger":"task"}
{"timestamp":"2025-09-01T17:27:02.405508Z","level":"info","event":"ElecMinimize: Iter:   4  F: -1123.577708044801966  |grad|_K:  7.847e-05  alpha:  5.918e-01  linmin: -7.903e-06  t[s]:    455.69","chan":"stdout","logger":"task"}
{"timestamp":"2025-09-01T17:27:10.568105Z","level":"info","event":"\tLinear fluid (dielectric constant: 78.4, screening length: 5.74355 Bohr) occupying 0.336051 of unit cell:\tCompleted after 16 iterations at t[s]:    460.20","chan":"stdout","logger":"task"}
{"timestamp":"2025-09-01T17:27:17.371960Z","level":"info","event":"\tLinear fluid (dielectric constant: 78.4, screening length: 5.74355 Bohr) occupying 0.336092 of unit cell:\tCompleted after 10 iterations at t[s]:    464.21","chan":"stdout","logger":"task"}
{"timestamp":"2025-09-01T17:27:17.372461Z","level":"info","event":"\tFillingsUpdate:  mu: -0.176215773  nElectrons: 287.900000","chan":"stdout","logger":"task"}
{"timestamp":"2025-09-01T17:27:17.376270Z","level":"info","event":"\tSubspaceRotationAdjust: set factor to 0.0895","chan":"stdout","logger":"task"}
{"timestamp":"2025-09-01T17:27:17.377091Z","level":"info","event":"ElecMinimize: Iter:   5  F: -1123.580881353156428  |grad|_K:  5.329e-05  alpha:  5.260e-01  linmin: -2.229e-06  t[s]:    470.66","chan":"stdout","logger":"task"}
{"timestamp":"2025-09-01T17:27:25.376099Z","level":"info","event":"\tLinear fluid (dielectric constant: 78.4, screening length: 5.74355 Bohr) occupying 0.336253 of unit cell:\tCompleted after 15 iterations at t[s]:    475.13","chan":"stdout","logger":"task"}
{"timestamp":"2025-09-01T17:27:31.951079Z","level":"info","event":"\tLinear fluid (dielectric constant: 78.4, screening length: 5.74355 Bohr) occupying 0.336255 of unit cell:\tCompleted after 4 iterations at t[s]:    478.83","chan":"stdout","logger":"task"}
{"timestamp":"2025-09-01T17:27:31.951539Z","level":"info","event":"\tFillingsUpdate:  mu: -0.174787091  nElectrons: 287.900000","chan":"stdout","logger":"task"}
{"timestamp":"2025-09-01T17:27:31.955558Z","level":"info","event":"\tSubspaceRotationAdjust: set factor to 0.104","chan":"stdout","logger":"task"}
{"timestamp":"2025-09-01T17:27:31.956102Z","level":"info","event":"ElecMinimize: Iter:   6  F: -1123.582363787590339  |grad|_K:  4.230e-05  alpha:  5.331e-01  linmin: -7.766e-07  t[s]:    485.24","chan":"stdout","logger":"task"}
{"timestamp":"2025-09-01T17:27:40.029327Z","level":"info","event":"\tLinear fluid (dielectric constant: 78.4, screening length: 5.74355 Bohr) occupying 0.336679 of unit cell:\tCompleted after 13 iterations at t[s]:    489.43","chan":"stdout","logger":"task"}
{"timestamp":"2025-09-01T17:27:46.484826Z","level":"info","event":"\tLinear fluid (dielectric constant: 78.4, screening length: 5.74355 Bohr) occupying 0.336756 of unit cell:\tCompleted after 10 iterations at t[s]:    493.68","chan":"stdout","logger":"task"}
{"timestamp":"2025-09-01T17:27:46.485223Z","level":"info","event":"\tFillingsUpdate:  mu: -0.173171852  nElectrons: 287.900000","chan":"stdout","logger":"task"}
{"timestamp":"2025-09-01T17:27:46.492590Z","level":"info","event":"\tSubspaceRotationAdjust: set factor to 0.13","chan":"stdout","logger":"task"}
{"timestamp":"2025-09-01T17:27:46.493340Z","level":"info","event":"ElecMinimize: Iter:   7  F: -1123.583472325034791  |grad|_K:  3.933e-05  alpha:  6.326e-01  linmin:  2.312e-08  t[s]:    499.77","chan":"stdout","logger":"task"}
{"timestamp":"2025-09-01T17:27:54.258903Z","level":"info","event":"\tLinear fluid (dielectric constant: 78.4, screening length: 5.74355 Bohr) occupying 0.337530 of unit cell:\tCompleted after 15 iterations at t[s]:    503.99","chan":"stdout","logger":"task"}
{"timestamp":"2025-09-01T17:28:00.878457Z","level":"info","event":"\tLinear fluid (dielectric constant: 78.4, screening length: 5.74355 Bohr) occupying 0.337628 of unit cell:\tCompleted after 10 iterations at t[s]:    507.88","chan":"stdout","logger":"task"}
{"timestamp":"2025-09-01T17:28:00.878960Z","level":"info","event":"\tFillingsUpdate:  mu: -0.171321013  nElectrons: 287.900000","chan":"stdout","logger":"task"}
{"timestamp":"2025-09-01T17:28:00.883752Z","level":"info","event":"\tSubspaceRotationAdjust: set factor to 0.151","chan":"stdout","logger":"task"}
{"timestamp":"2025-09-01T17:28:00.884596Z","level":"info","event":"ElecMinimize: Iter:   8  F: -1123.584556043499788  |grad|_K:  3.717e-05  alpha:  7.153e-01  linmin: -3.596e-07  t[s]:    514.17","chan":"stdout","logger":"task"}
{"timestamp":"2025-09-01T17:28:09.137086Z","level":"info","event":"\tLinear fluid (dielectric constant: 78.4, screening length: 5.74355 Bohr) occupying 0.338770 of unit cell:\tCompleted after 15 iterations at t[s]:    518.67","chan":"stdout","logger":"task"}
{"timestamp":"2025-09-01T17:28:15.884190Z","level":"info","event":"\tLinear fluid (dielectric constant: 78.4, screening length: 5.74355 Bohr) occupying 0.338616 of unit cell:\tCompleted after 10 iterations at t[s]:    522.78","chan":"stdout","logger":"task"}
{"timestamp":"2025-09-01T17:28:15.885256Z","level":"info","event":"\tFillingsUpdate:  mu: -0.169389701  nElectrons: 287.900000","chan":"stdout","logger":"task"}
{"timestamp":"2025-09-01T17:28:15.888011Z","level":"info","event":"\tSubspaceRotationAdjust: set factor to 0.177","chan":"stdout","logger":"task"}
{"timestamp":"2025-09-01T17:28:15.888731Z","level":"info","event":"ElecMinimize: Iter:   9  F: -1123.585387952594601  |grad|_K:  3.297e-05  alpha:  6.154e-01  linmin:  6.102e-07  t[s]:    529.17","chan":"stdout","logger":"task"}
{"timestamp":"2025-09-01T17:28:23.655698Z","level":"info","event":"\tLinear fluid (dielectric constant: 78.4, screening length: 5.74355 Bohr) occupying 0.339577 of unit cell:\tCompleted after 13 iterations at t[s]:    533.16","chan":"stdout","logger":"task"}
{"timestamp":"2025-09-01T17:28:30.343419Z","level":"info","event":"\tLinear fluid (dielectric constant: 78.4, screening length: 5.74355 Bohr) occupying 0.339651 of unit cell:\tCompleted after 8 iterations at t[s]:    537.26","chan":"stdout","logger":"task"}
{"timestamp":"2025-09-01T17:28:30.343845Z","level":"info","event":"\tFillingsUpdate:  mu: -0.167450414  nElectrons: 287.900000","chan":"stdout","logger":"task"}
[...]
{"timestamp":"2025-09-01T17:38:03.082843Z","level":"info","event":"\talgorithm              MINRES \\","chan":"stdout","logger":"task"}
{"timestamp":"2025-09-01T17:38:03.083199Z","level":"info","event":"\tresidualTol            0.0001 \\","chan":"stdout","logger":"task"}
{"timestamp":"2025-09-01T17:38:03.083661Z","level":"info","event":"\tresidualDiffThreshold  0.0001 \\","chan":"stdout","logger":"task"}
{"timestamp":"2025-09-01T17:38:03.087553Z","level":"info","event":"\tCGBypass               no \\","chan":"stdout","logger":"task"}
{"timestamp":"2025-09-01T17:38:03.088021Z","level":"info","event":"\trecomputeResidual      no","chan":"stdout","logger":"task"}
{"timestamp":"2025-09-01T17:38:03.088470Z","level":"info","event":"spintype no-spin","chan":"stdout","logger":"task"}
{"timestamp":"2025-09-01T17:38:03.088856Z","level":"info","event":"subspace-rotation-factor 1 yes","chan":"stdout","logger":"task"}
{"timestamp":"2025-09-01T17:38:03.089226Z","level":"info","event":"symmetries automatic","chan":"stdout","logger":"task"}
{"timestamp":"2025-09-01T17:38:03.089626Z","level":"info","event":"symmetry-threshold 0.0001","chan":"stdout","logger":"task"}
{"timestamp":"2025-09-01T17:38:03.090290Z","level":"info","event":"","chan":"stdout","logger":"task"}
{"timestamp":"2025-09-01T17:38:03.090641Z","level":"info","event":"","chan":"stdout","logger":"task"}
{"timestamp":"2025-09-01T17:38:03.090958Z","level":"info","event":"","chan":"stdout","logger":"task"}
{"timestamp":"2025-09-01T17:38:03.091232Z","level":"info","event":"---------- Setting up symmetries ----------","chan":"stdout","logger":"task"}
{"timestamp":"2025-09-01T17:38:03.091591Z","level":"info","event":"","chan":"stdout","logger":"task"}
{"timestamp":"2025-09-01T17:38:03.091913Z","level":"info","event":"Non-trivial transmission matrix:","chan":"stdout","logger":"task"}
{"timestamp":"2025-09-01T17:38:03.092255Z","level":"info","event":"[   1   0   3  ]","chan":"stdout","logger":"task"}
{"timestamp":"2025-09-01T17:38:03.092628Z","level":"info","event":"[   0   1   3  ]","chan":"stdout","logger":"task"}
{"timestamp":"2025-09-01T17:38:03.092991Z","level":"info","event":"[   0   0   1  ]","chan":"stdout","logger":"task"}
{"timestamp":"2025-09-01T17:38:03.093410Z","level":"info","event":"with reduced lattice vectors:","chan":"stdout","logger":"task"}
{"timestamp":"2025-09-01T17:38:03.093893Z","level":"info","event":"[     10.749050     -5.737742     15.033924  ]","chan":"stdout","logger":"task"}
{"timestamp":"2025-09-01T17:38:03.094269Z","level":"info","event":"[      0.000000      8.231181     24.693543  ]","chan":"stdout","logger":"task"}
{"timestamp":"2025-09-01T17:38:03.094635Z","level":"info","event":"[    -12.434680    -14.908437     15.242593  ]","chan":"stdout","logger":"task"}
{"timestamp":"2025-09-01T17:38:03.094977Z","level":"info","event":"","chan":"stdout","logger":"task"}
{"timestamp":"2025-09-01T17:38:03.095352Z","level":"info","event":"Found 2 point-group symmetries of the bravais lattice","chan":"stdout","logger":"task"}
{"timestamp":"2025-09-01T17:38:03.095765Z","level":"info","event":"Found 1 space-group symmetries with basis","chan":"stdout","logger":"task"}
{"timestamp":"2025-09-01T17:38:03.096153Z","level":"info","event":"Applied RMS atom displacement 0 bohrs to make symmetries exact.","chan":"stdout","logger":"task"}
{"timestamp":"2025-09-01T17:38:03.331978Z","level":"info","event":"","chan":"stdout","logger":"task"}
{"timestamp":"2025-09-01T17:38:03.338609Z","level":"info","event":"---------- Initializing the Grid ----------","chan":"stdout","logger":"task"}
{"timestamp":"2025-09-01T17:38:03.343956Z","level":"info","event":"R =","chan":"stdout","logger":"task"}
{"timestamp":"2025-09-01T17:38:03.349410Z","level":"info","event":"[      10.7491     -5.73774            0  ]","chan":"stdout","logger":"task"}
{"timestamp":"2025-09-01T17:38:03.356451Z","level":"info","event":"[            0      8.23118            0  ]","chan":"stdout","logger":"task"}
{"timestamp":"2025-09-01T17:38:03.360561Z","level":"info","event":"[     -12.4347     -14.9084      97.2719  ]","chan":"stdout","logger":"task"}
{"timestamp":"2025-09-01T17:38:03.370884Z","level":"info","event":"unit cell volume = 8606.37","chan":"stdout","logger":"task"}
{"timestamp":"2025-09-01T17:38:03.379903Z","level":"info","event":"G =","chan":"stdout","logger":"task"}
{"timestamp":"2025-09-01T17:38:03.387783Z","level":"info","event":"[   0.584534   0.407463         -0  ]","chan":"stdout","logger":"task"}
{"timestamp":"2025-09-01T17:38:03.390869Z","level":"info","event":"[         -0   0.763339          0  ]","chan":"stdout","logger":"task"}
{"timestamp":"2025-09-01T17:38:03.403347Z","level":"info","event":"[  0.0747234   0.169081   0.064594  ]","chan":"stdout","logger":"task"}
{"timestamp":"2025-09-01T17:38:03.411334Z","level":"info","event":"Minimum fftbox size, Smin = [  36  40  196  ]","chan":"stdout","logger":"task"}
{"timestamp":"2025-09-01T17:38:03.431261Z","level":"info","event":"Chosen fftbox size, S = [  36  40  196  ]","chan":"stdout","logger":"task"}
{"timestamp":"2025-09-01T17:38:03.445397Z","level":"info","event":"","chan":"stdout","logger":"task"}
{"timestamp":"2025-09-01T17:38:03.452536Z","level":"info","event":"---------- Exchange Correlation functional ----------","chan":"stdout","logger":"task"}
{"timestamp":"2025-09-01T17:38:03.461244Z","level":"info","event":"Initalized PBE GGA exchange.","chan":"stdout","logger":"task"}
{"timestamp":"2025-09-01T17:38:03.462072Z","level":"info","event":"Initalized PBE GGA correlation.","chan":"stdout","logger":"task"}
{"timestamp":"2025-09-01T17:38:03.462519Z","level":"info","event":"","chan":"stdout","logger":"task"}
{"timestamp":"2025-09-01T17:38:03.467254Z","level":"info","event":"---------- Setting up pseudopotentials ----------","chan":"stdout","logger":"task"}
{"timestamp":"2025-09-01T17:38:03.467831Z","level":"info","event":"Width of ionic core gaussian charges (only for fluid interactions / plotting) set to 0.794767","chan":"stdout","logger":"task"}
{"timestamp":"2025-09-01T17:38:03.468237Z","level":"info","event":"","chan":"stdout","logger":"task"}
{"timestamp":"2025-09-01T17:38:03.469216Z","level":"info","event":"Reading pseudopotential file '/opt/jdftx-master/build/pseudopotentials/GBRV/v_pbe.uspp':","chan":"stdout","logger":"task"}
{"timestamp":"2025-09-01T17:38:03.469772Z","level":"info","event":"  Title: V.  Created by USPP 7.3.6 on 31-3-15","chan":"stdout","logger":"task"}
{"timestamp":"2025-09-01T17:38:03.470191Z","level":"info","event":"  Reference state energy: -72.228583.  13 valence electrons in orbitals:","chan":"stdout","logger":"task"}
{"timestamp":"2025-09-01T17:38:03.470574Z","level":"info","event":"    |300>  occupation: 2  eigenvalue: -2.581040","chan":"stdout","logger":"task"}
{"timestamp":"2025-09-01T17:38:03.471246Z","level":"info","event":"    |310>  occupation: 6  eigenvalue: -1.618497","chan":"stdout","logger":"task"}
{"timestamp":"2025-09-01T17:38:03.471730Z","level":"info","event":"    |400>  occupation: 2  eigenvalue: -0.172800","chan":"stdout","logger":"task"}
{"timestamp":"2025-09-01T17:38:03.472210Z","level":"info","event":"    |320>  occupation: 3  eigenvalue: -0.189802","chan":"stdout","logger":"task"}
{"timestamp":"2025-09-01T17:38:03.472620Z","level":"info","event":"  lMax: 2  lLocal: 3  QijEcut: 6","chan":"stdout","logger":"task"}
{"timestamp":"2025-09-01T17:38:03.479633Z","level":"info","event":"  6 projectors sampled on a log grid with 593 points:","chan":"stdout","logger":"task"}
{"timestamp":"2025-09-01T17:38:03.480271Z","level":"info","event":"    l: 0  eig: -2.581041  rCut: 1.5","chan":"stdout","logger":"task"}
{"timestamp":"2025-09-01T17:38:03.487317Z","level":"info","event":"    l: 0  eig: -0.172801  rCut: 1.5","chan":"stdout","logger":"task"}
{"timestamp":"2025-09-01T17:38:03.487970Z","level":"info","event":"    l: 1  eig: -1.618497  rCut: 1.6","chan":"stdout","logger":"task"}
{"timestamp":"2025-09-01T17:38:03.488394Z","level":"info","event":"    l: 1  eig: 0.150000  rCut: 1.6","chan":"stdout","logger":"task"}
{"timestamp":"2025-09-01T17:38:03.489136Z","level":"info","event":"    l: 2  eig: -0.189802  rCut: 1.7","chan":"stdout","logger":"task"}
{"timestamp":"2025-09-01T17:38:03.489515Z","level":"info","event":"    l: 2  eig: 0.150000  rCut: 1.7","chan":"stdout","logger":"task"}
{"timestamp":"2025-09-01T17:38:03.490514Z","level":"info","event":"  Partial core density with radius 0.8","chan":"stdout","logger":"task"}
{"timestamp":"2025-09-01T17:38:03.496014Z","level":"info","event":"  Transforming core density to a uniform radial grid of dG=0.02 with 2181 points.","chan":"stdout","logger":"task"}
{"timestamp":"2025-09-01T17:38:03.506244Z","level":"info","event":"  Transforming local potential to a uniform radial grid of dG=0.02 with 2181 points.","chan":"stdout","logger":"task"}
{"timestamp":"2025-09-01T17:38:03.519214Z","level":"info","event":"  Transforming nonlocal projectors to a uniform radial grid of dG=0.02 with 219 points.","chan":"stdout","logger":"task"}
{"timestamp":"2025-09-01T17:38:03.526837Z","level":"info","event":"  Transforming density augmentations to a uniform radial grid of dG=0.02 with 2181 points.","chan":"stdout","logger":"task"}
{"timestamp":"2025-09-01T17:38:03.530403Z","level":"info","event":"  Transforming atomic orbitals to a uniform radial grid of dG=0.02 with 219 points.","chan":"stdout","logger":"task"}
{"timestamp":"2025-09-01T17:38:03.563911Z","level":"info","event":"  Core radius for overlap checks: 1.80 bohrs.","chan":"stdout","logger":"task"}
{"timestamp":"2025-09-01T17:38:03.566179Z","level":"info","event":"","chan":"stdout","logger":"task"}
{"timestamp":"2025-09-01T17:38:03.566920Z","level":"info","event":"Reading pseudopotential file '/opt/jdftx-master/build/pseudopotentials/GBRV/o_pbe.uspp':","chan":"stdout","logger":"task"}
{"timestamp":"2025-09-01T17:38:03.568752Z","level":"info","event":"  Title: O.  Created by USPP 7.3.6 on 3-2-2014","chan":"stdout","logger":"task"}
{"timestamp":"2025-09-01T17:38:03.571459Z","level":"info","event":"  Reference state energy: -15.894388.  6 valence electrons in orbitals:","chan":"stdout","logger":"task"}
{"timestamp":"2025-09-01T17:38:03.573590Z","level":"info","event":"    |200>  occupation: 2  eigenvalue: -0.878823","chan":"stdout","logger":"task"}
{"timestamp":"2025-09-01T17:38:03.574582Z","level":"info","event":"    |210>  occupation: 4  eigenvalue: -0.332131","chan":"stdout","logger":"task"}
{"timestamp":"2025-09-01T17:38:03.575355Z","level":"info","event":"  lMax: 2  lLocal: 2  QijEcut: 6","chan":"stdout","logger":"task"}
{"timestamp":"2025-09-01T17:38:03.576639Z","level":"info","event":"  5 projectors sampled on a log grid with 511 points:","chan":"stdout","logger":"task"}
{"timestamp":"2025-09-01T17:38:03.578362Z","level":"info","event":"    l: 0  eig: -0.878823  rCut: 1.25","chan":"stdout","logger":"task"}
{"timestamp":"2025-09-01T17:38:03.579070Z","level":"info","event":"    l: 0  eig: 0.000000  rCut: 1.25","chan":"stdout","logger":"task"}
{"timestamp":"2025-09-01T17:38:03.581762Z","level":"info","event":"    l: 1  eig: -0.332132  rCut: 1.25","chan":"stdout","logger":"task"}
{"timestamp":"2025-09-01T17:38:03.582756Z","level":"info","event":"    l: 1  eig: 0.000000  rCut: 1.25","chan":"stdout","logger":"task"}
{"timestamp":"2025-09-01T17:38:03.586766Z","level":"info","event":"    l: 2  eig: 1.000000  rCut: 1.25","chan":"stdout","logger":"task"}
{"timestamp":"2025-09-01T17:38:03.587347Z","level":"info","event":"  Partial core density with radius 0.7","chan":"stdout","logger":"task"}
{"timestamp":"2025-09-01T17:38:03.588045Z","level":"info","event":"  Transforming core density to a uniform radial grid of dG=0.02 with 2181 points.","chan":"stdout","logger":"task"}
{"timestamp":"2025-09-01T17:38:03.588405Z","level":"info","event":"  Transforming local potential to a uniform radial grid of dG=0.02 with 2181 points.","chan":"stdout","logger":"task"}
{"timestamp":"2025-09-01T17:38:03.588730Z","level":"info","event":"  Transforming nonlocal projectors to a uniform radial grid of dG=0.02 with 219 points.","chan":"stdout","logger":"task"}
{"timestamp":"2025-09-01T17:38:03.589051Z","level":"info","event":"  Transforming density augmentations to a uniform radial grid of dG=0.02 with 2181 points.","chan":"stdout","logger":"task"}
{"timestamp":"2025-09-01T17:38:03.595823Z","level":"info","event":"  Transforming atomic orbitals to a uniform radial grid of dG=0.02 with 219 points.","chan":"stdout","logger":"task"}
{"timestamp":"2025-09-01T17:38:03.596409Z","level":"info","event":"  Core radius for overlap checks: 1.25 bohrs.","chan":"stdout","logger":"task"}
{"timestamp":"2025-09-01T17:38:03.598965Z","level":"info","event":"","chan":"stdout","logger":"task"}
{"timestamp":"2025-09-01T17:38:03.601463Z","level":"info","event":"Initialized 2 species with 34 total atoms.","chan":"stdout","logger":"task"}
{"timestamp":"2025-09-01T17:38:03.601990Z","level":"info","event":"","chan":"stdout","logger":"task"}
{"timestamp":"2025-09-01T17:38:03.602417Z","level":"info","event":"Folded 1 k-points by 1x1x1 to 1 k-points.","chan":"stdout","logger":"task"}
{"timestamp":"2025-09-01T17:38:03.602795Z","level":"info","event":"","chan":"stdout","logger":"task"}
{"timestamp":"2025-09-01T17:38:03.603066Z","level":"info","event":"---------- Setting up k-points, bands, fillings ----------","chan":"stdout","logger":"task"}
{"timestamp":"2025-09-01T17:38:03.603430Z","level":"info","event":"No reducable k-points.","chan":"stdout","logger":"task"}
{"timestamp":"2025-09-01T17:38:03.603743Z","level":"info","event":"Computing the number of bands and number of electrons","chan":"stdout","logger":"task"}
{"timestamp":"2025-09-01T17:38:03.604068Z","level":"info","event":"Calculating initial fillings.","chan":"stdout","logger":"task"}
{"timestamp":"2025-09-01T17:38:03.604462Z","level":"info","event":"nElectrons: 288.100000   nBands: 208   nStates: 1","chan":"stdout","logger":"task"}
{"timestamp":"2025-09-01T17:38:03.604850Z","level":"info","event":"","chan":"stdout","logger":"task"}
{"timestamp":"2025-09-01T17:38:03.605361Z","level":"info","event":"----- Setting up reduced wavefunction bases (one per k-point) -----","chan":"stdout","logger":"task"}
{"timestamp":"2025-09-01T17:38:03.605669Z","level":"info","event":"average nbasis = 4602.000 , ideal nbasis = 4595.882","chan":"stdout","logger":"task"}
{"timestamp":"2025-09-01T17:38:05.791415Z","level":"info","event":"","chan":"stdout","logger":"task"}
{"timestamp":"2025-09-01T17:38:05.792666Z","level":"info","event":"Initializing DFT-D2 calculator for fluid / solvation:","chan":"stdout","logger":"task"}
{"timestamp":"2025-09-01T17:38:05.793192Z","level":"info","event":"\t V:  C6:  187.33 Eh-a0^6  R0: 2.952 a0","chan":"stdout","logger":"task"}
{"timestamp":"2025-09-01T17:38:05.794312Z","level":"info","event":"\t O:  C6:   12.14 Eh-a0^6  R0: 2.536 a0","chan":"stdout","logger":"task"}
{"timestamp":"2025-09-01T17:38:05.794641Z","level":"info","event":"","chan":"stdout","logger":"task"}
{"timestamp":"2025-09-01T17:38:05.794981Z","level":"info","event":"---------- Setting up ewald sum ----------","chan":"stdout","logger":"task"}
{"timestamp":"2025-09-01T17:38:05.795319Z","level":"info","event":"Optimum gaussian width for ewald sums = 4.465986 bohr.","chan":"stdout","logger":"task"}
{"timestamp":"2025-09-01T17:38:05.795653Z","level":"info","event":"Real space sum over 1365 unit cells with max indices [  6  7  3  ]","chan":"stdout","logger":"task"}
{"timestamp":"2025-09-01T17:38:05.796737Z","level":"info","event":"Reciprocal space sum over 17595 terms with max indices [  7  8  34  ]","chan":"stdout","logger":"task"}
{"timestamp":"2025-09-01T17:38:05.797591Z","level":"info","event":"","chan":"stdout","logger":"task"}
{"timestamp":"2025-09-01T17:38:05.797926Z","level":"info","event":"---------- Allocating electronic variables ----------","chan":"stdout","logger":"task"}
{"timestamp":"2025-09-01T17:38:32.393643Z","level":"info","event":"Initializing wave functions:  linear combination of atomic orbitals","chan":"stdout","logger":"task"}
{"timestamp":"2025-09-01T17:38:32.394170Z","level":"info","event":"V pseudo-atom occupations:   s ( 2 0 )  p ( 6 )  d ( 5 )","chan":"stdout","logger":"task"}
{"timestamp":"2025-09-01T17:38:32.395517Z","level":"info","event":"O pseudo-atom occupations:   s ( 2 )  p ( 4 )","chan":"stdout","logger":"task"}
{"timestamp":"2025-09-01T17:38:32.395978Z","level":"info","event":"\tFillingsUpdate:  mu: +0.256545248  nElectrons: 288.100000","chan":"stdout","logger":"task"}
{"timestamp":"2025-09-01T17:38:32.396990Z","level":"info","event":"LCAOMinimize: Iter:   0  F: -1028.4533752244647076  |grad|_K:  8.314e-02  alpha:  1.000e+00","chan":"stdout","logger":"task"}
{"timestamp":"2025-09-01T17:38:45.803920Z","level":"info","event":"\tFillingsUpdate:  mu: +0.593381998  nElectrons: 288.100000","chan":"stdout","logger":"task"}
{"timestamp":"2025-09-01T17:38:45.807703Z","level":"info","event":"LCAOMinimize: Iter:   1  F: -1063.8653966751292046  |grad|_K:  9.063e-02  alpha:  3.894e-01  linmin:  3.397e-02  cgtest: -1.146e+00  t[s]:     42.86","chan":"stdout","logger":"task"}
{"timestamp":"2025-09-01T17:38:50.831657Z","level":"error","event":"Server indicated the task shouldn't be running anymore. Terminating process","detail":{"detail":{"reason":"not_running","message":"TI is no longer in the running state and task should terminate","current_state":"failed"}},"logger":"task"}
{"timestamp":"2025-09-01T17:38:55.897822Z","level":"error","event":"Task killed!","logger":"task"}
{"timestamp":"2025-09-01T17:39:00.266169Z","level":"info","event":"\tFillingsUpdate:  mu: +0.491133288  nElectrons: 288.100000","chan":"stdout","logger":"task"}
{"timestamp":"2025-09-01T17:39:00.266776Z","level":"info","event":"LCAOMinimize: Iter:   2  F: -1072.3630440803442525  |grad|_K:  1.476e-01  alpha:  1.408e-01  linmin: -4.337e-02  cgtest: -2.673e-01  t[s]:     57.32","chan":"stdout","logger":"task"}
{"timestamp":"2025-09-01T17:39:13.798523Z","level":"info","event":"\tFillingsUpdate:  mu: +0.044649656  nElectrons: 288.100000","chan":"stdout","logger":"task"}
{"timestamp":"2025-09-01T17:39:13.799076Z","level":"info","event":"LCAOMinimize: Iter:   3  F: -1094.0648253597776147  |grad|_K:  2.825e-02  alpha:  6.346e-02  linmin:  5.503e-02  cgtest: -1.781e-01  t[s]:     70.85","chan":"stdout","logger":"task"}
{"timestamp":"2025-09-01T17:39:27.525263Z","level":"info","event":"\tFillingsUpdate:  mu: +0.083773109  nElectrons: 288.100000","chan":"stdout","logger":"task"}
{"timestamp":"2025-09-01T17:39:27.525671Z","level":"info","event":"LCAOMinimize: Iter:   4  F: -1096.5599797223701444  |grad|_K:  1.989e-02  alpha:  1.434e-01  linmin: -7.278e-02  cgtest:  1.216e+00  t[s]:     84.58","chan":"stdout","logger":"task"}
{"timestamp":"2025-09-01T17:39:27.526081Z","level":"info","event":"LCAOMinimize: Encountered beta<0, resetting CG.","chan":"stdout","logger":"task"}
{"timestamp":"2025-09-01T17:39:30.851813Z","level":"info","event":"LCAOMinimize: \tPredicted alpha/alphaT>3.000000, increasing alphaT to 4.301276e-01.","chan":"stdout","logger":"task"}
{"timestamp":"2025-09-01T17:39:34.398176Z","level":"info","event":"LCAOMinimize: \tWrong curvature in test step, increasing alphaT to 1.290383e+00.","chan":"stdout","logger":"task"}
{"timestamp":"2025-09-01T17:39:44.074778Z","level":"info","event":"\tFillingsUpdate:  mu: -0.096308884  nElectrons: 288.100000","chan":"stdout","logger":"task"}
{"timestamp":"2025-09-01T17:39:44.075207Z","level":"info","event":"LCAOMinimize: Iter:   5  F: -1106.1054757269757829  |grad|_K:  1.963e-02  alpha: -7.555e-01  linmin: -1.841e-01  cgtest:  4.362e-01  t[s]:    101.13","chan":"stdout","logger":"task"}
{"timestamp":"2025-09-01T17:39:56.773864Z","level":"info","event":"\tFillingsUpdate:  mu: -0.162540653  nElectrons: 288.100000","chan":"stdout","logger":"task"}
