{"timestamp":"2025-09-01T19:00:15.306083","level":"info","event":"DAG bundles loaded: dags-folder","logger":"airflow.dag_processing.bundles.manager.DagBundlesManager"}
{"timestamp":"2025-09-01T19:00:15.306650","level":"info","event":"Filling up the DagBag from /opt/airflow/dags/my_dag.py","logger":"airflow.models.dagbag.DagBag"}
{"timestamp":"2025-09-01T19:00:19.857867Z","level":"info","event":"","chan":"stdout","logger":"task"}
{"timestamp":"2025-09-01T19:00:19.858699Z","level":"info","event":"*************** JDFTx 1.7.0  ***************","chan":"stdout","logger":"task"}
{"timestamp":"2025-09-01T19:00:19.865942Z","level":"info","event":"","chan":"stdout","logger":"task"}
{"timestamp":"2025-09-01T19:00:19.867014Z","level":"info","event":"Start date and time: Mon Sep  1 19:00:19 2025","chan":"stdout","logger":"task"}
{"timestamp":"2025-09-01T19:00:19.867271Z","level":"info","event":"Executable jdftx with command-line: -i /opt/airflow/output/gc_dft/mp-755394-111-3_-0.1.in","chan":"stdout","logger":"task"}
{"timestamp":"2025-09-01T19:00:19.867486Z","level":"info","event":"Running on hosts (process indices):  41a82e7e5a55 (0)","chan":"stdout","logger":"task"}
{"timestamp":"2025-09-01T19:00:19.867662Z","level":"info","event":"Divided in process groups (process indices):  0 (0)","chan":"stdout","logger":"task"}
{"timestamp":"2025-09-01T19:00:19.867844Z","level":"info","event":"Resource initialization completed at t[s]:      0.00","chan":"stdout","logger":"task"}
{"timestamp":"2025-09-01T19:00:19.868006Z","level":"info","event":"Run totals: 1 processes, 8 threads, 0 GPUs","chan":"stdout","logger":"task"}
{"timestamp":"2025-09-01T19:00:19.868179Z","level":"info","event":"","chan":"stdout","logger":"task"}
{"timestamp":"2025-09-01T19:00:19.868464Z","level":"info","event":"","chan":"stdout","logger":"task"}
{"timestamp":"2025-09-01T19:00:19.868683Z","level":"info","event":"Input parsed successfully to the following command list (including defaults):","chan":"stdout","logger":"task"}
{"timestamp":"2025-09-01T19:00:19.868876Z","level":"info","event":"","chan":"stdout","logger":"task"}
{"timestamp":"2025-09-01T19:00:19.869073Z","level":"info","event":"basis kpoint-dependent","chan":"stdout","logger":"task"}
{"timestamp":"2025-09-01T19:00:19.869262Z","level":"info","event":"coords-type Cartesian","chan":"stdout","logger":"task"}
{"timestamp":"2025-09-01T19:00:19.869434Z","level":"info","event":"core-overlap-check vector","chan":"stdout","logger":"task"}
{"timestamp":"2025-09-01T19:00:19.869871Z","level":"info","event":"coulomb-interaction Periodic","chan":"stdout","logger":"task"}
{"timestamp":"2025-09-01T19:00:19.870216Z","level":"info","event":"davidson-band-ratio 1.1","chan":"stdout","logger":"task"}
{"timestamp":"2025-09-01T19:00:19.870478Z","level":"info","event":"dump End State","chan":"stdout","logger":"task"}
{"timestamp":"2025-09-01T19:00:19.870752Z","level":"info","event":"dump-name $VAR","chan":"stdout","logger":"task"}
{"timestamp":"2025-09-01T19:00:19.871044Z","level":"info","event":"elec-cutoff 5","chan":"stdout","logger":"task"}
{"timestamp":"2025-09-01T19:00:19.871341Z","level":"info","event":"elec-eigen-algo Davidson","chan":"stdout","logger":"task"}
{"timestamp":"2025-09-01T19:00:19.871578Z","level":"info","event":"elec-ex-corr gga-PBE","chan":"stdout","logger":"task"}
{"timestamp":"2025-09-01T19:00:19.871849Z","level":"info","event":"elec-initial-charge -0.100000","chan":"stdout","logger":"task"}
{"timestamp":"2025-09-01T19:00:19.872068Z","level":"info","event":"elec-smearing Fermi 0.00734","chan":"stdout","logger":"task"}
{"timestamp":"2025-09-01T19:00:19.872360Z","level":"info","event":"electronic-minimize  \\","chan":"stdout","logger":"task"}
{"timestamp":"2025-09-01T19:00:19.872579Z","level":"info","event":"\tdirUpdateScheme      FletcherReeves \\","chan":"stdout","logger":"task"}
{"timestamp":"2025-09-01T19:00:19.872821Z","level":"info","event":"\tlinminMethod         DirUpdateRecommended \\","chan":"stdout","logger":"task"}
{"timestamp":"2025-09-01T19:00:19.873109Z","level":"info","event":"\tnIterations          15 \\","chan":"stdout","logger":"task"}
{"timestamp":"2025-09-01T19:00:19.873447Z","level":"info","event":"\thistory              15 \\","chan":"stdout","logger":"task"}
{"timestamp":"2025-09-01T19:00:19.873732Z","level":"info","event":"\tknormThreshold       0 \\","chan":"stdout","logger":"task"}
{"timestamp":"2025-09-01T19:00:19.873968Z","level":"info","event":"\tmaxThreshold         no \\","chan":"stdout","logger":"task"}
{"timestamp":"2025-09-01T19:00:19.874180Z","level":"info","event":"\tenergyDiffThreshold  5e-05 \\","chan":"stdout","logger":"task"}
{"timestamp":"2025-09-01T19:00:19.874385Z","level":"info","event":"\tnEnergyDiff          2 \\","chan":"stdout","logger":"task"}
{"timestamp":"2025-09-01T19:00:19.874584Z","level":"info","event":"\tconvergeAll          no \\","chan":"stdout","logger":"task"}
{"timestamp":"2025-09-01T19:00:19.874754Z","level":"info","event":"\talphaTstart          1 \\","chan":"stdout","logger":"task"}
{"timestamp":"2025-09-01T19:00:19.874907Z","level":"info","event":"\talphaTmin            1e-10 \\","chan":"stdout","logger":"task"}
{"timestamp":"2025-09-01T19:00:19.875090Z","level":"info","event":"\tupdateTestStepSize   yes \\","chan":"stdout","logger":"task"}
{"timestamp":"2025-09-01T19:00:19.875344Z","level":"info","event":"\talphaTreduceFactor   0.1 \\","chan":"stdout","logger":"task"}
{"timestamp":"2025-09-01T19:00:19.875520Z","level":"info","event":"\talphaTincreaseFactor 3 \\","chan":"stdout","logger":"task"}
{"timestamp":"2025-09-01T19:00:19.875677Z","level":"info","event":"\tnAlphaAdjustMax      3 \\","chan":"stdout","logger":"task"}
{"timestamp":"2025-09-01T19:00:19.875845Z","level":"info","event":"\twolfeEnergy          0.0001 \\","chan":"stdout","logger":"task"}
{"timestamp":"2025-09-01T19:00:19.876007Z","level":"info","event":"\twolfeGradient        0.9 \\","chan":"stdout","logger":"task"}
{"timestamp":"2025-09-01T19:00:19.876260Z","level":"info","event":"\tabortOnFailedStep    no \\","chan":"stdout","logger":"task"}
{"timestamp":"2025-09-01T19:00:19.880339Z","level":"info","event":"\tfdTest               no","chan":"stdout","logger":"task"}
{"timestamp":"2025-09-01T19:00:19.880738Z","level":"info","event":"exchange-regularization WignerSeitzTruncated","chan":"stdout","logger":"task"}
{"timestamp":"2025-09-01T19:00:19.880999Z","level":"info","event":"fluid LinearPCM 298.000000 1.013250","chan":"stdout","logger":"task"}
{"timestamp":"2025-09-01T19:00:19.881188Z","level":"info","event":"fluid-anion F- 1 MeanFieldLJ \\","chan":"stdout","logger":"task"}
{"timestamp":"2025-09-01T19:00:19.881399Z","level":"info","event":"\tepsBulk 1 \\","chan":"stdout","logger":"task"}
{"timestamp":"2025-09-01T19:00:19.881629Z","level":"info","event":"\tpMol 0 \\","chan":"stdout","logger":"task"}
{"timestamp":"2025-09-01T19:00:19.881855Z","level":"info","event":"\tepsInf 1 \\","chan":"stdout","logger":"task"}
{"timestamp":"2025-09-01T19:00:19.882165Z","level":"info","event":"\tPvap 0 \\","chan":"stdout","logger":"task"}
{"timestamp":"2025-09-01T19:00:19.882518Z","level":"info","event":"\tsigmaBulk 0 \\","chan":"stdout","logger":"task"}
{"timestamp":"2025-09-01T19:00:19.882795Z","level":"info","event":"\tRvdw 2.24877 \\","chan":"stdout","logger":"task"}
{"timestamp":"2025-09-01T19:00:19.883041Z","level":"info","event":"\tRes 0 \\","chan":"stdout","logger":"task"}
{"timestamp":"2025-09-01T19:00:19.883237Z","level":"info","event":"\ttauNuc 343133","chan":"stdout","logger":"task"}
{"timestamp":"2025-09-01T19:00:19.883497Z","level":"info","event":"fluid-cation Na+ 1 MeanFieldLJ \\","chan":"stdout","logger":"task"}
{"timestamp":"2025-09-01T19:00:19.883774Z","level":"info","event":"\tepsBulk 1 \\","chan":"stdout","logger":"task"}
{"timestamp":"2025-09-01T19:00:19.884232Z","level":"info","event":"\tpMol 0 \\","chan":"stdout","logger":"task"}
{"timestamp":"2025-09-01T19:00:19.884489Z","level":"info","event":"\tepsInf 1 \\","chan":"stdout","logger":"task"}
{"timestamp":"2025-09-01T19:00:19.884773Z","level":"info","event":"\tPvap 0 \\","chan":"stdout","logger":"task"}
{"timestamp":"2025-09-01T19:00:19.885044Z","level":"info","event":"\tsigmaBulk 0 \\","chan":"stdout","logger":"task"}
{"timestamp":"2025-09-01T19:00:19.885303Z","level":"info","event":"\tRvdw 2.19208 \\","chan":"stdout","logger":"task"}
{"timestamp":"2025-09-01T19:00:19.885532Z","level":"info","event":"\tRes 0 \\","chan":"stdout","logger":"task"}
{"timestamp":"2025-09-01T19:00:19.885726Z","level":"info","event":"\ttauNuc 343133","chan":"stdout","logger":"task"}
{"timestamp":"2025-09-01T19:00:19.885945Z","level":"info","event":"fluid-ex-corr lda-TF lda-PZ","chan":"stdout","logger":"task"}
{"timestamp":"2025-09-01T19:00:19.886224Z","level":"info","event":"fluid-gummel-loop 10 1.000000e-05","chan":"stdout","logger":"task"}
{"timestamp":"2025-09-01T19:00:19.886487Z","level":"info","event":"fluid-minimize  \\","chan":"stdout","logger":"task"}
{"timestamp":"2025-09-01T19:00:19.886736Z","level":"info","event":"\tdirUpdateScheme      PolakRibiere \\","chan":"stdout","logger":"task"}
{"timestamp":"2025-09-01T19:00:19.887027Z","level":"info","event":"\tlinminMethod         DirUpdateRecommended \\","chan":"stdout","logger":"task"}
{"timestamp":"2025-09-01T19:00:19.887243Z","level":"info","event":"\tnIterations          400 \\","chan":"stdout","logger":"task"}
{"timestamp":"2025-09-01T19:00:19.887436Z","level":"info","event":"\thistory              15 \\","chan":"stdout","logger":"task"}
{"timestamp":"2025-09-01T19:00:19.887625Z","level":"info","event":"\tknormThreshold       1e-11 \\","chan":"stdout","logger":"task"}
{"timestamp":"2025-09-01T19:00:19.887793Z","level":"info","event":"\tmaxThreshold         no \\","chan":"stdout","logger":"task"}
{"timestamp":"2025-09-01T19:00:19.887948Z","level":"info","event":"\tenergyDiffThreshold  0 \\","chan":"stdout","logger":"task"}
{"timestamp":"2025-09-01T19:00:19.888098Z","level":"info","event":"\tnEnergyDiff          2 \\","chan":"stdout","logger":"task"}
{"timestamp":"2025-09-01T19:00:19.888339Z","level":"info","event":"\tconvergeAll          no \\","chan":"stdout","logger":"task"}
{"timestamp":"2025-09-01T19:00:19.888592Z","level":"info","event":"\talphaTstart          1 \\","chan":"stdout","logger":"task"}
{"timestamp":"2025-09-01T19:00:19.888814Z","level":"info","event":"\talphaTmin            1e-10 \\","chan":"stdout","logger":"task"}
{"timestamp":"2025-09-01T19:00:19.889033Z","level":"info","event":"\tupdateTestStepSize   yes \\","chan":"stdout","logger":"task"}
{"timestamp":"2025-09-01T19:00:19.889213Z","level":"info","event":"\talphaTreduceFactor   0.1 \\","chan":"stdout","logger":"task"}
{"timestamp":"2025-09-01T19:00:19.889395Z","level":"info","event":"\talphaTincreaseFactor 3 \\","chan":"stdout","logger":"task"}
{"timestamp":"2025-09-01T19:00:19.889587Z","level":"info","event":"\tnAlphaAdjustMax      6 \\","chan":"stdout","logger":"task"}
{"timestamp":"2025-09-01T19:00:19.889817Z","level":"info","event":"\twolfeEnergy          0.0001 \\","chan":"stdout","logger":"task"}
{"timestamp":"2025-09-01T19:00:19.890061Z","level":"info","event":"\twolfeGradient        0.9 \\","chan":"stdout","logger":"task"}
{"timestamp":"2025-09-01T19:00:19.896303Z","level":"info","event":"\tabortOnFailedStep    no \\","chan":"stdout","logger":"task"}
{"timestamp":"2025-09-01T19:00:19.896717Z","level":"info","event":"\tfdTest               no","chan":"stdout","logger":"task"}
{"timestamp":"2025-09-01T19:00:19.897000Z","level":"info","event":"fluid-solvent H2O 55.338 ScalarEOS \\","chan":"stdout","logger":"task"}
{"timestamp":"2025-09-01T19:00:19.897202Z","level":"info","event":"\tepsBulk 78.4 \\","chan":"stdout","logger":"task"}
{"timestamp":"2025-09-01T19:00:19.897437Z","level":"info","event":"\tpMol 0.92466 \\","chan":"stdout","logger":"task"}
{"timestamp":"2025-09-01T19:00:19.897866Z","level":"info","event":"\tepsInf 1.77 \\","chan":"stdout","logger":"task"}
{"timestamp":"2025-09-01T19:00:19.898211Z","level":"info","event":"\tPvap 1.06736e-10 \\","chan":"stdout","logger":"task"}
{"timestamp":"2025-09-01T19:00:19.898496Z","level":"info","event":"\tsigmaBulk 4.62e-05 \\","chan":"stdout","logger":"task"}
{"timestamp":"2025-09-01T19:00:19.899152Z","level":"info","event":"\tRvdw 2.61727 \\","chan":"stdout","logger":"task"}
{"timestamp":"2025-09-01T19:00:19.899524Z","level":"info","event":"\tRes 1.42 \\","chan":"stdout","logger":"task"}
{"timestamp":"2025-09-01T19:00:19.899881Z","level":"info","event":"\ttauNuc 343133 \\","chan":"stdout","logger":"task"}
{"timestamp":"2025-09-01T19:00:19.900269Z","level":"info","event":"\tpoleEl 15 7 1","chan":"stdout","logger":"task"}
{"timestamp":"2025-09-01T19:00:19.900592Z","level":"info","event":"forces-output-coords Positions","chan":"stdout","logger":"task"}
{"timestamp":"2025-09-01T19:00:19.900951Z","level":"info","event":"initial-state $VAR","chan":"stdout","logger":"task"}
{"timestamp":"2025-09-01T19:00:19.901240Z","level":"info","event":"ion V   0.000297000000000   0.000206000000000  40.527760999999998 1","chan":"stdout","logger":"task"}
{"timestamp":"2025-09-01T19:00:19.901981Z","level":"info","event":"ion V  -2.867357999999999   4.115779999999999  33.076448999999997 1","chan":"stdout","logger":"task"}
{"timestamp":"2025-09-01T19:00:19.902460Z","level":"info","event":"ion V   0.000297000000000   0.000206000000000  51.335754999999992 1","chan":"stdout","logger":"task"}
{"timestamp":"2025-09-01T19:00:19.902744Z","level":"info","event":"ion V  -2.867357999999999   4.115779999999999  43.884442999999983 1","chan":"stdout","logger":"task"}
{"timestamp":"2025-09-01T19:00:19.903120Z","level":"info","event":"ion V   2.087893999999999   6.178677999999999  29.394374999999997 1","chan":"stdout","logger":"task"}
{"timestamp":"2025-09-01T19:00:19.903483Z","level":"info","event":"ion V   2.923822000000000   2.052782000000000  35.129578999999993 1","chan":"stdout","logger":"task"}
{"timestamp":"2025-09-01T19:00:19.903807Z","level":"info","event":"ion V   0.000297000000000   0.000206000000000  62.143747999999995 1","chan":"stdout","logger":"task"}
{"timestamp":"2025-09-01T19:00:19.904129Z","level":"info","event":"ion V  -2.867357999999999   4.115779999999999  54.692435999999994 1","chan":"stdout","logger":"task"}
{"timestamp":"2025-09-01T19:00:19.904694Z","level":"info","event":"ion V   2.087893999999999   6.178677999999999  40.202368999999983 1","chan":"stdout","logger":"task"}
{"timestamp":"2025-09-01T19:00:19.905673Z","level":"info","event":"ion V   2.923822000000000   2.052782000000000  45.937573000000000 1","chan":"stdout","logger":"task"}
{"timestamp":"2025-09-01T19:00:19.910400Z","level":"info","event":"ion O  -0.406594999999999   3.963560999999999  29.978448999999998 1","chan":"stdout","logger":"task"}
{"timestamp":"2025-09-01T19:00:19.910778Z","level":"info","event":"ion O  -3.080845999999999   7.974219999999999  22.816246999999997 1","chan":"stdout","logger":"task"}
{"timestamp":"2025-09-01T19:00:19.911770Z","level":"info","event":"ion O   8.092021000000001   0.256846000000000  30.899395999999992 1","chan":"stdout","logger":"task"}
{"timestamp":"2025-09-01T19:00:19.912248Z","level":"info","event":"ion O   5.417259000000000   4.267018999999999  23.737565000000000 1","chan":"stdout","logger":"task"}
{"timestamp":"2025-09-01T19:00:19.912685Z","level":"info","event":"ion O  -0.406594999999999   3.963560999999999  40.786441999999994 1","chan":"stdout","logger":"task"}
{"timestamp":"2025-09-01T19:00:19.913107Z","level":"info","event":"ion O   4.781548000000001   4.427946999999999  29.221173999999994 1","chan":"stdout","logger":"task"}
{"timestamp":"2025-09-01T19:00:19.913527Z","level":"info","event":"ion O   2.336115000000000   7.929795999999998  21.273168999999999 1","chan":"stdout","logger":"task"}
{"timestamp":"2025-09-01T19:00:19.914494Z","level":"info","event":"ion O  -3.080845999999999   7.974219999999999  33.624240999999998 1","chan":"stdout","logger":"task"}
{"timestamp":"2025-09-01T19:00:19.914833Z","level":"info","event":"ion O   8.092021000000001   0.256846000000000  41.707389999999990 1","chan":"stdout","logger":"task"}
{"timestamp":"2025-09-01T19:00:19.915615Z","level":"info","event":"ion O   2.674004000000000   0.301442000000000  43.251495999999996 1","chan":"stdout","logger":"task"}
{"timestamp":"2025-09-01T19:00:19.915926Z","level":"info","event":"ion O   0.229520000000000   3.803208999999999  35.304034999999999 1","chan":"stdout","logger":"task"}
{"timestamp":"2025-09-01T19:00:19.916332Z","level":"info","event":"ion O   5.417259000000000   4.267018999999999  34.545558999999997 1","chan":"stdout","logger":"task"}
{"timestamp":"2025-09-01T19:00:19.916791Z","level":"info","event":"ion O  -0.406594999999999   3.963560999999999  51.594435999999995 1","chan":"stdout","logger":"task"}
{"timestamp":"2025-09-01T19:00:19.917147Z","level":"info","event":"ion O   4.781548000000001   4.427946999999999  40.029167999999999 1","chan":"stdout","logger":"task"}
{"timestamp":"2025-09-01T19:00:19.917406Z","level":"info","event":"ion O   2.336115000000000   7.929795999999998  32.081162999999989 1","chan":"stdout","logger":"task"}
{"timestamp":"2025-09-01T19:00:19.917677Z","level":"info","event":"ion O  -3.080845999999999   7.974219999999999  44.432234000000001 1","chan":"stdout","logger":"task"}
{"timestamp":"2025-09-01T19:00:19.923029Z","level":"info","event":"ion O   8.092021000000001   0.256846000000000  52.515383999999983 1","chan":"stdout","logger":"task"}
{"timestamp":"2025-09-01T19:00:19.923411Z","level":"info","event":"ion O   2.674004000000000   0.301442000000000  54.059489999999990 1","chan":"stdout","logger":"task"}
{"timestamp":"2025-09-01T19:00:19.923673Z","level":"info","event":"ion O   0.229520000000000   3.803208999999999  46.112028999999993 1","chan":"stdout","logger":"task"}
{"timestamp":"2025-09-01T19:00:19.923918Z","level":"info","event":"ion O   5.417259000000000   4.267018999999999  45.353552999999991 1","chan":"stdout","logger":"task"}
{"timestamp":"2025-09-01T19:00:19.924261Z","level":"info","event":"ion-species GBRV/$ID_pbe.uspp","chan":"stdout","logger":"task"}
{"timestamp":"2025-09-01T19:00:19.924650Z","level":"info","event":"ion-width Ecut","chan":"stdout","logger":"task"}
{"timestamp":"2025-09-01T19:00:19.924932Z","level":"info","event":"ionic-minimize  \\","chan":"stdout","logger":"task"}
{"timestamp":"2025-09-01T19:00:19.928303Z","level":"info","event":"\tdirUpdateScheme      L-BFGS \\","chan":"stdout","logger":"task"}
{"timestamp":"2025-09-01T19:00:19.928752Z","level":"info","event":"\tlinminMethod         DirUpdateRecommended \\","chan":"stdout","logger":"task"}
{"timestamp":"2025-09-01T19:00:19.929068Z","level":"info","event":"\tnIterations          0 \\","chan":"stdout","logger":"task"}
{"timestamp":"2025-09-01T19:00:19.929398Z","level":"info","event":"\thistory              15 \\","chan":"stdout","logger":"task"}
{"timestamp":"2025-09-01T19:00:19.929753Z","level":"info","event":"\tknormThreshold       0.0001 \\","chan":"stdout","logger":"task"}
{"timestamp":"2025-09-01T19:00:19.930072Z","level":"info","event":"\tmaxThreshold         no \\","chan":"stdout","logger":"task"}
{"timestamp":"2025-09-01T19:00:19.930406Z","level":"info","event":"\tenergyDiffThreshold  1e-06 \\","chan":"stdout","logger":"task"}
{"timestamp":"2025-09-01T19:00:19.930805Z","level":"info","event":"\tnEnergyDiff          2 \\","chan":"stdout","logger":"task"}
{"timestamp":"2025-09-01T19:00:19.931173Z","level":"info","event":"\tconvergeAll          no \\","chan":"stdout","logger":"task"}
{"timestamp":"2025-09-01T19:00:19.931493Z","level":"info","event":"\talphaTstart          1 \\","chan":"stdout","logger":"task"}
{"timestamp":"2025-09-01T19:00:19.931920Z","level":"info","event":"\talphaTmin            1e-10 \\","chan":"stdout","logger":"task"}
{"timestamp":"2025-09-01T19:00:19.932331Z","level":"info","event":"\tupdateTestStepSize   yes \\","chan":"stdout","logger":"task"}
{"timestamp":"2025-09-01T19:00:19.932703Z","level":"info","event":"\talphaTreduceFactor   0.1 \\","chan":"stdout","logger":"task"}
{"timestamp":"2025-09-01T19:00:19.933368Z","level":"info","event":"\talphaTincreaseFactor 3 \\","chan":"stdout","logger":"task"}
{"timestamp":"2025-09-01T19:00:19.938784Z","level":"info","event":"\tnAlphaAdjustMax      3 \\","chan":"stdout","logger":"task"}
{"timestamp":"2025-09-01T19:00:19.939132Z","level":"info","event":"\twolfeEnergy          0.0001 \\","chan":"stdout","logger":"task"}
{"timestamp":"2025-09-01T19:00:19.939504Z","level":"info","event":"\twolfeGradient        0.9 \\","chan":"stdout","logger":"task"}
{"timestamp":"2025-09-01T19:00:19.939882Z","level":"info","event":"\tabortOnFailedStep    no \\","chan":"stdout","logger":"task"}
{"timestamp":"2025-09-01T19:00:19.940320Z","level":"info","event":"\tfdTest               no","chan":"stdout","logger":"task"}
{"timestamp":"2025-09-01T19:00:19.940647Z","level":"info","event":"kpoint   0.500000000000   0.500000000000   0.500000000000  1.00000000000000","chan":"stdout","logger":"task"}
{"timestamp":"2025-09-01T19:00:19.941006Z","level":"info","event":"kpoint-folding 1 1 1","chan":"stdout","logger":"task"}
{"timestamp":"2025-09-01T19:00:19.941407Z","level":"info","event":"latt-move-scale 1 1 1","chan":"stdout","logger":"task"}
{"timestamp":"2025-09-01T19:00:19.941899Z","level":"info","event":"latt-scale 1 1 1","chan":"stdout","logger":"task"}
{"timestamp":"2025-09-01T19:00:19.942232Z","level":"info","event":"lattice  \\","chan":"stdout","logger":"task"}
{"timestamp":"2025-09-01T19:00:19.942539Z","level":"info","event":"\t  10.749050000000000   -5.737742000000000    0.000000000000000  \\","chan":"stdout","logger":"task"}
{"timestamp":"2025-09-01T19:00:19.942881Z","level":"info","event":"\t   0.000000000000000    8.231180999999999    0.000000000000000  \\","chan":"stdout","logger":"task"}
{"timestamp":"2025-09-01T19:00:19.943271Z","level":"info","event":"\t -12.434680000000000  -14.908436999999999   97.271944000000005","chan":"stdout","logger":"task"}
{"timestamp":"2025-09-01T19:00:19.943585Z","level":"info","event":"lattice-minimize  \\","chan":"stdout","logger":"task"}
{"timestamp":"2025-09-01T19:00:19.943915Z","level":"info","event":"\tdirUpdateScheme      L-BFGS \\","chan":"stdout","logger":"task"}
{"timestamp":"2025-09-01T19:00:19.944266Z","level":"info","event":"\tlinminMethod         DirUpdateRecommended \\","chan":"stdout","logger":"task"}
{"timestamp":"2025-09-01T19:00:19.944575Z","level":"info","event":"\tnIterations          0 \\","chan":"stdout","logger":"task"}
{"timestamp":"2025-09-01T19:00:19.944875Z","level":"info","event":"\thistory              15 \\","chan":"stdout","logger":"task"}
{"timestamp":"2025-09-01T19:00:19.945220Z","level":"info","event":"\tknormThreshold       0 \\","chan":"stdout","logger":"task"}
{"timestamp":"2025-09-01T19:00:19.945549Z","level":"info","event":"\tmaxThreshold         no \\","chan":"stdout","logger":"task"}
{"timestamp":"2025-09-01T19:00:19.945899Z","level":"info","event":"\tenergyDiffThreshold  1e-06 \\","chan":"stdout","logger":"task"}
{"timestamp":"2025-09-01T19:00:19.946310Z","level":"info","event":"\tnEnergyDiff          2 \\","chan":"stdout","logger":"task"}
{"timestamp":"2025-09-01T19:00:19.946845Z","level":"info","event":"\tconvergeAll          no \\","chan":"stdout","logger":"task"}
{"timestamp":"2025-09-01T19:00:19.947297Z","level":"info","event":"\talphaTstart          1 \\","chan":"stdout","logger":"task"}
{"timestamp":"2025-09-01T19:00:19.947622Z","level":"info","event":"\talphaTmin            1e-10 \\","chan":"stdout","logger":"task"}
{"timestamp":"2025-09-01T19:00:19.947907Z","level":"info","event":"\tupdateTestStepSize   yes \\","chan":"stdout","logger":"task"}
{"timestamp":"2025-09-01T19:00:19.948194Z","level":"info","event":"\talphaTreduceFactor   0.1 \\","chan":"stdout","logger":"task"}
{"timestamp":"2025-09-01T19:00:19.948520Z","level":"info","event":"\talphaTincreaseFactor 3 \\","chan":"stdout","logger":"task"}
{"timestamp":"2025-09-01T19:00:19.948849Z","level":"info","event":"\tnAlphaAdjustMax      3 \\","chan":"stdout","logger":"task"}
{"timestamp":"2025-09-01T19:00:19.949198Z","level":"info","event":"\twolfeEnergy          0.0001 \\","chan":"stdout","logger":"task"}
{"timestamp":"2025-09-01T19:00:19.949587Z","level":"info","event":"\twolfeGradient        0.9 \\","chan":"stdout","logger":"task"}
{"timestamp":"2025-09-01T19:00:19.949921Z","level":"info","event":"\tabortOnFailedStep    no \\","chan":"stdout","logger":"task"}
{"timestamp":"2025-09-01T19:00:19.950261Z","level":"info","event":"\tfdTest               no","chan":"stdout","logger":"task"}
{"timestamp":"2025-09-01T19:00:19.950613Z","level":"info","event":"lcao-params 15 5e-05 0.00734","chan":"stdout","logger":"task"}
{"timestamp":"2025-09-01T19:00:19.950949Z","level":"info","event":"pcm-variant CANDLE","chan":"stdout","logger":"task"}
{"timestamp":"2025-09-01T19:00:19.951285Z","level":"info","event":"perturb-minimize  \\","chan":"stdout","logger":"task"}
{"timestamp":"2025-09-01T19:00:19.951621Z","level":"info","event":"\tnIterations            0 \\","chan":"stdout","logger":"task"}
{"timestamp":"2025-09-01T19:00:19.951976Z","level":"info","event":"\talgorithm              MINRES \\","chan":"stdout","logger":"task"}
{"timestamp":"2025-09-01T19:00:19.952323Z","level":"info","event":"\tresidualTol            0.0001 \\","chan":"stdout","logger":"task"}
{"timestamp":"2025-09-01T19:00:19.952662Z","level":"info","event":"\tresidualDiffThreshold  0.0001 \\","chan":"stdout","logger":"task"}
{"timestamp":"2025-09-01T19:00:19.953188Z","level":"info","event":"\tCGBypass               no \\","chan":"stdout","logger":"task"}
{"timestamp":"2025-09-01T19:00:19.953522Z","level":"info","event":"\trecomputeResidual      no","chan":"stdout","logger":"task"}
{"timestamp":"2025-09-01T19:00:19.953948Z","level":"info","event":"spintype no-spin","chan":"stdout","logger":"task"}
{"timestamp":"2025-09-01T19:00:19.954228Z","level":"info","event":"subspace-rotation-factor 1 yes","chan":"stdout","logger":"task"}
{"timestamp":"2025-09-01T19:00:19.954497Z","level":"info","event":"symmetries automatic","chan":"stdout","logger":"task"}
{"timestamp":"2025-09-01T19:00:19.954819Z","level":"info","event":"symmetry-threshold 0.0001","chan":"stdout","logger":"task"}
{"timestamp":"2025-09-01T19:00:19.955112Z","level":"info","event":"","chan":"stdout","logger":"task"}
{"timestamp":"2025-09-01T19:00:19.955426Z","level":"info","event":"","chan":"stdout","logger":"task"}
{"timestamp":"2025-09-01T19:00:19.955648Z","level":"info","event":"","chan":"stdout","logger":"task"}
{"timestamp":"2025-09-01T19:00:19.955907Z","level":"info","event":"---------- Setting up symmetries ----------","chan":"stdout","logger":"task"}
{"timestamp":"2025-09-01T19:00:19.956248Z","level":"info","event":"","chan":"stdout","logger":"task"}
{"timestamp":"2025-09-01T19:00:19.956533Z","level":"info","event":"Non-trivial transmission matrix:","chan":"stdout","logger":"task"}
{"timestamp":"2025-09-01T19:00:19.956760Z","level":"info","event":"[   1   0   3  ]","chan":"stdout","logger":"task"}
{"timestamp":"2025-09-01T19:00:19.957057Z","level":"info","event":"[   0   1   3  ]","chan":"stdout","logger":"task"}
{"timestamp":"2025-09-01T19:00:19.960304Z","level":"info","event":"[   0   0   1  ]","chan":"stdout","logger":"task"}
{"timestamp":"2025-09-01T19:00:19.960674Z","level":"info","event":"with reduced lattice vectors:","chan":"stdout","logger":"task"}
{"timestamp":"2025-09-01T19:00:19.961094Z","level":"info","event":"[     10.749050     -5.737742     15.033924  ]","chan":"stdout","logger":"task"}
{"timestamp":"2025-09-01T19:00:19.961408Z","level":"info","event":"[      0.000000      8.231181     24.693543  ]","chan":"stdout","logger":"task"}
{"timestamp":"2025-09-01T19:00:19.961737Z","level":"info","event":"[    -12.434680    -14.908437     15.242593  ]","chan":"stdout","logger":"task"}
{"timestamp":"2025-09-01T19:00:19.962175Z","level":"info","event":"","chan":"stdout","logger":"task"}
{"timestamp":"2025-09-01T19:00:19.962522Z","level":"info","event":"Found 2 point-group symmetries of the bravais lattice","chan":"stdout","logger":"task"}
{"timestamp":"2025-09-01T19:00:19.962882Z","level":"info","event":"Found 1 space-group symmetries with basis","chan":"stdout","logger":"task"}
{"timestamp":"2025-09-01T19:00:19.963196Z","level":"info","event":"Applied RMS atom displacement 0 bohrs to make symmetries exact.","chan":"stdout","logger":"task"}
{"timestamp":"2025-09-01T19:00:20.202370Z","level":"info","event":"","chan":"stdout","logger":"task"}
{"timestamp":"2025-09-01T19:00:20.203970Z","level":"info","event":"---------- Initializing the Grid ----------","chan":"stdout","logger":"task"}
{"timestamp":"2025-09-01T19:00:20.204504Z","level":"info","event":"R =","chan":"stdout","logger":"task"}
{"timestamp":"2025-09-01T19:00:20.204952Z","level":"info","event":"[      10.7491     -5.73774            0  ]","chan":"stdout","logger":"task"}
{"timestamp":"2025-09-01T19:00:20.205322Z","level":"info","event":"[            0      8.23118            0  ]","chan":"stdout","logger":"task"}
{"timestamp":"2025-09-01T19:00:20.205614Z","level":"info","event":"[     -12.4347     -14.9084      97.2719  ]","chan":"stdout","logger":"task"}
{"timestamp":"2025-09-01T19:00:20.205935Z","level":"info","event":"unit cell volume = 8606.37","chan":"stdout","logger":"task"}
{"timestamp":"2025-09-01T19:00:20.206844Z","level":"info","event":"G =","chan":"stdout","logger":"task"}
{"timestamp":"2025-09-01T19:00:20.207138Z","level":"info","event":"[   0.584534   0.407463         -0  ]","chan":"stdout","logger":"task"}
{"timestamp":"2025-09-01T19:00:20.207427Z","level":"info","event":"[         -0   0.763339          0  ]","chan":"stdout","logger":"task"}
{"timestamp":"2025-09-01T19:00:20.208417Z","level":"info","event":"[  0.0747234   0.169081   0.064594  ]","chan":"stdout","logger":"task"}
{"timestamp":"2025-09-01T19:00:20.208899Z","level":"info","event":"Minimum fftbox size, Smin = [  36  40  196  ]","chan":"stdout","logger":"task"}
{"timestamp":"2025-09-01T19:00:20.209878Z","level":"info","event":"Chosen fftbox size, S = [  36  40  196  ]","chan":"stdout","logger":"task"}
{"timestamp":"2025-09-01T19:00:20.210341Z","level":"info","event":"","chan":"stdout","logger":"task"}
{"timestamp":"2025-09-01T19:00:20.210805Z","level":"info","event":"---------- Exchange Correlation functional ----------","chan":"stdout","logger":"task"}
{"timestamp":"2025-09-01T19:00:20.211184Z","level":"info","event":"Initalized PBE GGA exchange.","chan":"stdout","logger":"task"}
{"timestamp":"2025-09-01T19:00:20.211672Z","level":"info","event":"Initalized PBE GGA correlation.","chan":"stdout","logger":"task"}
{"timestamp":"2025-09-01T19:00:20.212258Z","level":"info","event":"","chan":"stdout","logger":"task"}
{"timestamp":"2025-09-01T19:00:20.212713Z","level":"info","event":"---------- Setting up pseudopotentials ----------","chan":"stdout","logger":"task"}
{"timestamp":"2025-09-01T19:00:20.213831Z","level":"info","event":"Width of ionic core gaussian charges (only for fluid interactions / plotting) set to 0.794767","chan":"stdout","logger":"task"}
{"timestamp":"2025-09-01T19:00:20.214123Z","level":"info","event":"","chan":"stdout","logger":"task"}
{"timestamp":"2025-09-01T19:00:20.214387Z","level":"info","event":"Reading pseudopotential file '/opt/jdftx-master/build/pseudopotentials/GBRV/v_pbe.uspp':","chan":"stdout","logger":"task"}
{"timestamp":"2025-09-01T19:00:20.215252Z","level":"info","event":"  Title: V.  Created by USPP 7.3.6 on 31-3-15","chan":"stdout","logger":"task"}
{"timestamp":"2025-09-01T19:00:20.215554Z","level":"info","event":"  Reference state energy: -72.228583.  13 valence electrons in orbitals:","chan":"stdout","logger":"task"}
{"timestamp":"2025-09-01T19:00:20.215818Z","level":"info","event":"    |300>  occupation: 2  eigenvalue: -2.581040","chan":"stdout","logger":"task"}
{"timestamp":"2025-09-01T19:00:20.216077Z","level":"info","event":"    |310>  occupation: 6  eigenvalue: -1.618497","chan":"stdout","logger":"task"}
{"timestamp":"2025-09-01T19:00:20.216468Z","level":"info","event":"    |400>  occupation: 2  eigenvalue: -0.172800","chan":"stdout","logger":"task"}
{"timestamp":"2025-09-01T19:00:20.216877Z","level":"info","event":"    |320>  occupation: 3  eigenvalue: -0.189802","chan":"stdout","logger":"task"}
{"timestamp":"2025-09-01T19:00:20.217171Z","level":"info","event":"  lMax: 2  lLocal: 3  QijEcut: 6","chan":"stdout","logger":"task"}
{"timestamp":"2025-09-01T19:00:20.217413Z","level":"info","event":"  6 projectors sampled on a log grid with 593 points:","chan":"stdout","logger":"task"}
{"timestamp":"2025-09-01T19:00:20.217593Z","level":"info","event":"    l: 0  eig: -2.581041  rCut: 1.5","chan":"stdout","logger":"task"}
{"timestamp":"2025-09-01T19:00:20.217936Z","level":"info","event":"    l: 0  eig: -0.172801  rCut: 1.5","chan":"stdout","logger":"task"}
{"timestamp":"2025-09-01T19:00:20.224290Z","level":"info","event":"    l: 1  eig: -1.618497  rCut: 1.6","chan":"stdout","logger":"task"}
{"timestamp":"2025-09-01T19:00:20.224749Z","level":"info","event":"    l: 1  eig: 0.150000  rCut: 1.6","chan":"stdout","logger":"task"}
{"timestamp":"2025-09-01T19:00:20.225127Z","level":"info","event":"    l: 2  eig: -0.189802  rCut: 1.7","chan":"stdout","logger":"task"}
{"timestamp":"2025-09-01T19:00:20.228305Z","level":"info","event":"    l: 2  eig: 0.150000  rCut: 1.7","chan":"stdout","logger":"task"}
{"timestamp":"2025-09-01T19:00:20.228670Z","level":"info","event":"  Partial core density with radius 0.8","chan":"stdout","logger":"task"}
{"timestamp":"2025-09-01T19:00:20.229045Z","level":"info","event":"  Transforming core density to a uniform radial grid of dG=0.02 with 2181 points.","chan":"stdout","logger":"task"}
{"timestamp":"2025-09-01T19:00:20.229394Z","level":"info","event":"  Transforming local potential to a uniform radial grid of dG=0.02 with 2181 points.","chan":"stdout","logger":"task"}
{"timestamp":"2025-09-01T19:00:20.229759Z","level":"info","event":"  Transforming nonlocal projectors to a uniform radial grid of dG=0.02 with 219 points.","chan":"stdout","logger":"task"}
{"timestamp":"2025-09-01T19:00:20.230348Z","level":"info","event":"  Transforming density augmentations to a uniform radial grid of dG=0.02 with 2181 points.","chan":"stdout","logger":"task"}
{"timestamp":"2025-09-01T19:00:20.230637Z","level":"info","event":"  Transforming atomic orbitals to a uniform radial grid of dG=0.02 with 219 points.","chan":"stdout","logger":"task"}
{"timestamp":"2025-09-01T19:00:20.400652Z","level":"info","event":"  Core radius for overlap checks: 1.80 bohrs.","chan":"stdout","logger":"task"}
{"timestamp":"2025-09-01T19:00:20.401806Z","level":"info","event":"","chan":"stdout","logger":"task"}
{"timestamp":"2025-09-01T19:00:20.402865Z","level":"info","event":"Reading pseudopotential file '/opt/jdftx-master/build/pseudopotentials/GBRV/o_pbe.uspp':","chan":"stdout","logger":"task"}
{"timestamp":"2025-09-01T19:00:20.403596Z","level":"info","event":"  Title: O.  Created by USPP 7.3.6 on 3-2-2014","chan":"stdout","logger":"task"}
{"timestamp":"2025-09-01T19:00:20.404939Z","level":"info","event":"  Reference state energy: -15.894388.  6 valence electrons in orbitals:","chan":"stdout","logger":"task"}
{"timestamp":"2025-09-01T19:00:20.406101Z","level":"info","event":"    |200>  occupation: 2  eigenvalue: -0.878823","chan":"stdout","logger":"task"}
{"timestamp":"2025-09-01T19:00:20.406443Z","level":"info","event":"    |210>  occupation: 4  eigenvalue: -0.332131","chan":"stdout","logger":"task"}
{"timestamp":"2025-09-01T19:00:20.406718Z","level":"info","event":"  lMax: 2  lLocal: 2  QijEcut: 6","chan":"stdout","logger":"task"}
{"timestamp":"2025-09-01T19:00:20.407002Z","level":"info","event":"  5 projectors sampled on a log grid with 511 points:","chan":"stdout","logger":"task"}
{"timestamp":"2025-09-01T19:00:20.407268Z","level":"info","event":"    l: 0  eig: -0.878823  rCut: 1.25","chan":"stdout","logger":"task"}
{"timestamp":"2025-09-01T19:00:20.407538Z","level":"info","event":"    l: 0  eig: 0.000000  rCut: 1.25","chan":"stdout","logger":"task"}
{"timestamp":"2025-09-01T19:00:20.407770Z","level":"info","event":"    l: 1  eig: -0.332132  rCut: 1.25","chan":"stdout","logger":"task"}
{"timestamp":"2025-09-01T19:00:20.408020Z","level":"info","event":"    l: 1  eig: 0.000000  rCut: 1.25","chan":"stdout","logger":"task"}
{"timestamp":"2025-09-01T19:00:20.408329Z","level":"info","event":"    l: 2  eig: 1.000000  rCut: 1.25","chan":"stdout","logger":"task"}
{"timestamp":"2025-09-01T19:00:20.408683Z","level":"info","event":"  Partial core density with radius 0.7","chan":"stdout","logger":"task"}
{"timestamp":"2025-09-01T19:00:20.408927Z","level":"info","event":"  Transforming core density to a uniform radial grid of dG=0.02 with 2181 points.","chan":"stdout","logger":"task"}
{"timestamp":"2025-09-01T19:00:20.409163Z","level":"info","event":"  Transforming local potential to a uniform radial grid of dG=0.02 with 2181 points.","chan":"stdout","logger":"task"}
{"timestamp":"2025-09-01T19:00:20.409385Z","level":"info","event":"  Transforming nonlocal projectors to a uniform radial grid of dG=0.02 with 219 points.","chan":"stdout","logger":"task"}
{"timestamp":"2025-09-01T19:00:20.409628Z","level":"info","event":"  Transforming density augmentations to a uniform radial grid of dG=0.02 with 2181 points.","chan":"stdout","logger":"task"}
{"timestamp":"2025-09-01T19:00:20.409949Z","level":"info","event":"  Transforming atomic orbitals to a uniform radial grid of dG=0.02 with 219 points.","chan":"stdout","logger":"task"}
{"timestamp":"2025-09-01T19:00:20.429198Z","level":"info","event":"  Core radius for overlap checks: 1.25 bohrs.","chan":"stdout","logger":"task"}
{"timestamp":"2025-09-01T19:00:20.429623Z","level":"info","event":"","chan":"stdout","logger":"task"}
{"timestamp":"2025-09-01T19:00:20.429930Z","level":"info","event":"Initialized 2 species with 30 total atoms.","chan":"stdout","logger":"task"}
{"timestamp":"2025-09-01T19:00:20.430221Z","level":"info","event":"","chan":"stdout","logger":"task"}
{"timestamp":"2025-09-01T19:00:20.430530Z","level":"info","event":"Folded 1 k-points by 1x1x1 to 1 k-points.","chan":"stdout","logger":"task"}
{"timestamp":"2025-09-01T19:00:20.430867Z","level":"info","event":"","chan":"stdout","logger":"task"}
{"timestamp":"2025-09-01T19:00:20.431361Z","level":"info","event":"---------- Setting up k-points, bands, fillings ----------","chan":"stdout","logger":"task"}
{"timestamp":"2025-09-01T19:00:20.431778Z","level":"info","event":"No reducable k-points.","chan":"stdout","logger":"task"}
{"timestamp":"2025-09-01T19:00:20.432283Z","level":"info","event":"Computing the number of bands and number of electrons","chan":"stdout","logger":"task"}
{"timestamp":"2025-09-01T19:00:20.432620Z","level":"info","event":"Calculating initial fillings.","chan":"stdout","logger":"task"}
{"timestamp":"2025-09-01T19:00:20.432874Z","level":"info","event":"nElectrons: 249.900000   nBands: 180   nStates: 1","chan":"stdout","logger":"task"}
{"timestamp":"2025-09-01T19:00:20.433117Z","level":"info","event":"","chan":"stdout","logger":"task"}
{"timestamp":"2025-09-01T19:00:20.433345Z","level":"info","event":"----- Setting up reduced wavefunction bases (one per k-point) -----","chan":"stdout","logger":"task"}
{"timestamp":"2025-09-01T19:00:20.433610Z","level":"info","event":"average nbasis = 4602.000 , ideal nbasis = 4595.882","chan":"stdout","logger":"task"}
{"timestamp":"2025-09-01T19:00:22.478561Z","level":"info","event":"","chan":"stdout","logger":"task"}
{"timestamp":"2025-09-01T19:00:22.478833Z","level":"info","event":"Initializing DFT-D2 calculator for fluid / solvation:","chan":"stdout","logger":"task"}
{"timestamp":"2025-09-01T19:00:22.479056Z","level":"info","event":"\t V:  C6:  187.33 Eh-a0^6  R0: 2.952 a0","chan":"stdout","logger":"task"}
{"timestamp":"2025-09-01T19:00:22.479857Z","level":"info","event":"\t O:  C6:   12.14 Eh-a0^6  R0: 2.536 a0","chan":"stdout","logger":"task"}
{"timestamp":"2025-09-01T19:00:22.480112Z","level":"info","event":"","chan":"stdout","logger":"task"}
{"timestamp":"2025-09-01T19:00:22.480890Z","level":"info","event":"---------- Setting up ewald sum ----------","chan":"stdout","logger":"task"}
{"timestamp":"2025-09-01T19:00:22.481169Z","level":"info","event":"Optimum gaussian width for ewald sums = 4.560127 bohr.","chan":"stdout","logger":"task"}
{"timestamp":"2025-09-01T19:00:22.482154Z","level":"info","event":"Real space sum over 1365 unit cells with max indices [  6  7  3  ]","chan":"stdout","logger":"task"}
{"timestamp":"2025-09-01T19:00:22.483083Z","level":"info","event":"Reciprocal space sum over 15525 terms with max indices [  7  7  34  ]","chan":"stdout","logger":"task"}
{"timestamp":"2025-09-01T19:00:22.483439Z","level":"info","event":"","chan":"stdout","logger":"task"}
{"timestamp":"2025-09-01T19:00:22.484171Z","level":"info","event":"---------- Allocating electronic variables ----------","chan":"stdout","logger":"task"}
{"timestamp":"2025-09-01T19:00:46.823024Z","level":"info","event":"Initializing wave functions:  linear combination of atomic orbitals","chan":"stdout","logger":"task"}
{"timestamp":"2025-09-01T19:00:46.826270Z","level":"info","event":"V pseudo-atom occupations:   s ( 2 0 )  p ( 6 )  d ( 5 )","chan":"stdout","logger":"task"}
{"timestamp":"2025-09-01T19:00:46.826746Z","level":"info","event":"O pseudo-atom occupations:   s ( 2 )  p ( 4 )","chan":"stdout","logger":"task"}
{"timestamp":"2025-09-01T19:00:46.827506Z","level":"info","event":"\tFillingsUpdate:  mu: +0.398166675  nElectrons: 249.900000","chan":"stdout","logger":"task"}
{"timestamp":"2025-09-01T19:00:46.828061Z","level":"info","event":"LCAOMinimize: Iter:   0  F: -882.8334398416767499  |grad|_K:  6.644e-02  alpha:  1.000e+00","chan":"stdout","logger":"task"}
{"timestamp":"2025-09-01T19:00:58.232489Z","level":"info","event":"\tFillingsUpdate:  mu: -0.042263256  nElectrons: 249.900000","chan":"stdout","logger":"task"}
{"timestamp":"2025-09-01T19:00:58.233474Z","level":"info","event":"LCAOMinimize: Iter:   1  F: -926.2952702057563101  |grad|_K:  1.255e-01  alpha:  6.389e-01  linmin:  1.462e-02  cgtest: -4.512e-01  t[s]:     38.38","chan":"stdout","logger":"task"}
{"timestamp":"2025-09-01T19:01:10.310181Z","level":"info","event":"LCAOMinimize: \tStep increased F by 1.285853e+01, reducing alpha to 1.383574e-02.","chan":"stdout","logger":"task"}
{"timestamp":"2025-09-01T19:01:18.751547Z","level":"info","event":"\tFillingsUpdate:  mu: -0.036129781  nElectrons: 249.900000","chan":"stdout","logger":"task"}
{"timestamp":"2025-09-01T19:01:18.751965Z","level":"info","event":"LCAOMinimize: Iter:   2  F: -928.1324470224427614  |grad|_K:  5.048e-02  alpha:  1.384e-02  linmin: -2.971e-04  cgtest:  2.229e+00  t[s]:     58.89","chan":"stdout","logger":"task"}
{"timestamp":"2025-09-01T19:01:18.752497Z","level":"info","event":"LCAOMinimize: Encountered beta<0, resetting CG.","chan":"stdout","logger":"task"}
{"timestamp":"2025-09-01T19:01:29.745310Z","level":"info","event":"\tFillingsUpdate:  mu: -0.039964730  nElectrons: 249.900000","chan":"stdout","logger":"task"}
{"timestamp":"2025-09-01T19:01:29.760088Z","level":"info","event":"LCAOMinimize: Iter:   3  F: -930.2702857443291578  |grad|_K:  9.578e-02  alpha:  2.117e-02  linmin: -1.367e-01  cgtest:  4.669e-01  t[s]:     69.89","chan":"stdout","logger":"task"}
{"timestamp":"2025-09-01T19:01:41.183790Z","level":"info","event":"\tFillingsUpdate:  mu: -0.021606875  nElectrons: 249.900000","chan":"stdout","logger":"task"}
{"timestamp":"2025-09-01T19:01:41.184407Z","level":"info","event":"LCAOMinimize: Iter:   4  F: -942.0473313958916606  |grad|_K:  2.678e-02  alpha:  1.990e-02  linmin: -1.426e-01  cgtest:  9.139e-01  t[s]:     81.33","chan":"stdout","logger":"task"}
{"timestamp":"2025-09-01T19:01:41.185793Z","level":"info","event":"LCAOMinimize: Encountered beta<0, resetting CG.","chan":"stdout","logger":"task"}
{"timestamp":"2025-09-01T19:01:44.316066Z","level":"info","event":"LCAOMinimize: \tPredicted alpha/alphaT>3.000000, increasing alphaT to 5.971448e-02.","chan":"stdout","logger":"task"}
{"timestamp":"2025-09-01T19:01:47.198375Z","level":"info","event":"LCAOMinimize: \tWrong curvature in test step, increasing alphaT to 1.791434e-01.","chan":"stdout","logger":"task"}
{"timestamp":"2025-09-01T19:01:55.539752Z","level":"info","event":"\tFillingsUpdate:  mu: -0.037852053  nElectrons: 249.900000","chan":"stdout","logger":"task"}
{"timestamp":"2025-09-01T19:01:55.540306Z","level":"info","event":"LCAOMinimize: Iter:   5  F: -943.7431737496888218  |grad|_K:  2.584e-02  alpha: -1.433e-01  linmin: -9.369e-02  cgtest:  7.239e-01  t[s]:     95.68","chan":"stdout","logger":"task"}
{"timestamp":"2025-09-01T19:02:06.591777Z","level":"info","event":"\tFillingsUpdate:  mu: -0.093387958  nElectrons: 249.900000","chan":"stdout","logger":"task"}
{"timestamp":"2025-09-01T19:02:06.592320Z","level":"info","event":"LCAOMinimize: Iter:   6  F: -945.5846528868563610  |grad|_K:  2.090e-02  alpha:  8.379e-02  linmin: -1.520e-01  cgtest:  6.593e-01  t[s]:    106.73","chan":"stdout","logger":"task"}
{"timestamp":"2025-09-01T19:02:09.562477Z","level":"info","event":"LCAOMinimize: \tWrong curvature in test step, increasing alphaT to 2.513558e-01.","chan":"stdout","logger":"task"}
{"timestamp":"2025-09-01T19:02:18.268318Z","level":"info","event":"\tFillingsUpdate:  mu: -0.127818951  nElectrons: 249.900000","chan":"stdout","logger":"task"}
{"timestamp":"2025-09-01T19:02:18.268941Z","level":"info","event":"LCAOMinimize: Iter:   7  F: -947.2290334383292247  |grad|_K:  2.248e-02  alpha: -2.606e-01  linmin: -1.661e-01  cgtest:  7.886e-01  t[s]:    118.41","chan":"stdout","logger":"task"}
{"timestamp":"2025-09-01T19:02:29.959984Z","level":"info","event":"\tFillingsUpdate:  mu: -0.165662493  nElectrons: 249.900000","chan":"stdout","logger":"task"}
{"timestamp":"2025-09-01T19:02:29.960513Z","level":"info","event":"LCAOMinimize: Iter:   8  F: -949.6452580892774904  |grad|_K:  2.498e-02  alpha:  8.324e-02  linmin: -1.960e-01  cgtest:  7.174e-01  t[s]:    130.10","chan":"stdout","logger":"task"}
{"timestamp":"2025-09-01T19:02:32.774666Z","level":"info","event":"LCAOMinimize: \tWrong curvature in test step, increasing alphaT to 2.497205e-01.","chan":"stdout","logger":"task"}
{"timestamp":"2025-09-01T19:02:40.761188Z","level":"info","event":"\tFillingsUpdate:  mu: -0.170591591  nElectrons: 249.900000","chan":"stdout","logger":"task"}
{"timestamp":"2025-09-01T19:02:40.761770Z","level":"info","event":"LCAOMinimize: Iter:   9  F: -953.3458489848441104  |grad|_K:  2.491e-02  alpha: -1.792e-01  linmin: -2.126e-01  cgtest:  6.968e-01  t[s]:    140.90","chan":"stdout","logger":"task"}
{"timestamp":"2025-09-01T19:02:52.409125Z","level":"info","event":"\tFillingsUpdate:  mu: -0.115551563  nElectrons: 249.900000","chan":"stdout","logger":"task"}
{"timestamp":"2025-09-01T19:02:52.410545Z","level":"info","event":"LCAOMinimize: Iter:  10  F: -957.0540105386940013  |grad|_K:  2.244e-02  alpha:  1.165e-01  linmin: -1.344e-01  cgtest:  4.492e-01  t[s]:    152.55","chan":"stdout","logger":"task"}
{"timestamp":"2025-09-01T19:03:03.852099Z","level":"info","event":"\tFillingsUpdate:  mu: -0.067210481  nElectrons: 249.900000","chan":"stdout","logger":"task"}
{"timestamp":"2025-09-01T19:03:03.852525Z","level":"info","event":"LCAOMinimize: Iter:  11  F: -958.6384709935506407  |grad|_K:  1.408e-02  alpha:  6.540e-02  linmin: -2.706e-01  cgtest:  4.955e-01  t[s]:    163.99","chan":"stdout","logger":"task"}
{"timestamp":"2025-09-01T19:03:14.997947Z","level":"info","event":"LCAOMinimize: \tStep increased F by 4.778610e-01, reducing alpha to 1.886313e-02.","chan":"stdout","logger":"task"}
{"timestamp":"2025-09-01T19:03:23.481276Z","level":"info","event":"\tFillingsUpdate:  mu: -0.061300970  nElectrons: 249.900000","chan":"stdout","logger":"task"}
{"timestamp":"2025-09-01T19:03:23.481944Z","level":"info","event":"LCAOMinimize: Iter:  12  F: -958.7851591153112167  |grad|_K:  1.242e-02  alpha:  1.886e-02  linmin: -3.691e-01  cgtest:  9.654e-01  t[s]:    183.62","chan":"stdout","logger":"task"}
{"timestamp":"2025-09-01T19:03:23.482355Z","level":"info","event":"LCAOMinimize: Encountered beta<0, resetting CG.","chan":"stdout","logger":"task"}
{"timestamp":"2025-09-01T19:03:26.544578Z","level":"info","event":"LCAOMinimize: \tPredicted alpha/alphaT>3.000000, increasing alphaT to 5.658940e-02.","chan":"stdout","logger":"task"}
{"timestamp":"2025-09-01T19:03:29.481828Z","level":"info","event":"LCAOMinimize: \tPredicted alpha/alphaT>3.000000, increasing alphaT to 1.697682e-01.","chan":"stdout","logger":"task"}
{"timestamp":"2025-09-01T19:03:41.134443Z","level":"info","event":"\tFillingsUpdate:  mu: -0.032696653  nElectrons: 249.900000","chan":"stdout","logger":"task"}
{"timestamp":"2025-09-01T19:03:41.135010Z","level":"info","event":"LCAOMinimize: Iter:  13  F: -959.2030574540762018  |grad|_K:  7.717e-03  alpha:  1.588e-01  linmin:  1.008e-01  cgtest: -2.229e-01  t[s]:    201.28","chan":"stdout","logger":"task"}
{"timestamp":"2025-09-01T19:03:51.954129Z","level":"info","event":"\tFillingsUpdate:  mu: -0.013608097  nElectrons: 249.900000","chan":"stdout","logger":"task"}
{"timestamp":"2025-09-01T19:03:51.954545Z","level":"info","event":"LCAOMinimize: Iter:  14  F: -959.2400381071120137  |grad|_K:  6.266e-03  alpha:  5.662e-02  linmin: -2.333e-04  cgtest:  6.730e-01  t[s]:    212.10","chan":"stdout","logger":"task"}
{"timestamp":"2025-09-01T19:04:04.059070Z","level":"info","event":"\tFillingsUpdate:  mu: -0.014894168  nElectrons: 249.900000","chan":"stdout","logger":"task"}
{"timestamp":"2025-09-01T19:04:04.059678Z","level":"info","event":"LCAOMinimize: Iter:  15  F: -959.2912747642083104  |grad|_K:  1.689e-03  alpha:  7.706e-02  linmin: -1.434e-01  cgtest:  3.927e-01  t[s]:    224.20","chan":"stdout","logger":"task"}
{"timestamp":"2025-09-01T19:04:04.059964Z","level":"info","event":"LCAOMinimize: Encountered beta<0, resetting CG.","chan":"stdout","logger":"task"}
{"timestamp":"2025-09-01T19:04:05.954768Z","level":"info","event":"LCAOMinimize: None of the convergence criteria satisfied after 15 iterations.","chan":"stdout","logger":"task"}
{"timestamp":"2025-09-01T19:04:05.955271Z","level":"info","event":"----- createFluidSolver() ----- (Fluid-side solver setup)","chan":"stdout","logger":"task"}
{"timestamp":"2025-09-01T19:04:05.955611Z","level":"info","event":"   Initializing fluid molecule 'H2O'","chan":"stdout","logger":"task"}
{"timestamp":"2025-09-01T19:04:05.955857Z","level":"info","event":"     Initializing site 'O'","chan":"stdout","logger":"task"}
{"timestamp":"2025-09-01T19:04:05.956156Z","level":"info","event":"       Electron density: proportional to exp(-r/0.36935)*erfc((r-0.51523)/0.36823) with norm 6.826","chan":"stdout","logger":"task"}
{"timestamp":"2025-09-01T19:04:05.956416Z","level":"info","event":"       Charge density: gaussian nuclear width 0.478731 with net site charge 0.826","chan":"stdout","logger":"task"}
{"timestamp":"2025-09-01T19:04:05.963062Z","level":"info","event":"       Polarizability: cuspless exponential with width 0.32 and norm 3.73","chan":"stdout","logger":"task"}
{"timestamp":"2025-09-01T19:04:05.964379Z","level":"info","event":"       Hard sphere radius: 2.57003 bohrs","chan":"stdout","logger":"task"}
{"timestamp":"2025-09-01T19:04:05.964800Z","level":"info","event":"       Positions in reference frame:","chan":"stdout","logger":"task"}
{"timestamp":"2025-09-01T19:04:05.965218Z","level":"info","event":"         [ +0.000000 +0.000000 +0.000000 ]","chan":"stdout","logger":"task"}
{"timestamp":"2025-09-01T19:04:05.965632Z","level":"info","event":"     Initializing site 'H'","chan":"stdout","logger":"task"}
{"timestamp":"2025-09-01T19:04:05.966036Z","level":"info","event":"       Electron density: proportional to exp(-r/0.34641)*erfc((r-0)/0.390882) with norm 0.587","chan":"stdout","logger":"task"}
{"timestamp":"2025-09-01T19:04:05.966386Z","level":"info","event":"       Charge density: gaussian nuclear width 0.377945 with net site charge -0.413","chan":"stdout","logger":"task"}
{"timestamp":"2025-09-01T19:04:05.966682Z","level":"info","event":"       Polarizability: cuspless exponential with width 0.39 and norm 3.3","chan":"stdout","logger":"task"}
{"timestamp":"2025-09-01T19:04:05.967045Z","level":"info","event":"       Positions in reference frame:","chan":"stdout","logger":"task"}
{"timestamp":"2025-09-01T19:04:05.967791Z","level":"info","event":"         [ +0.000000 -1.441945 +1.122523 ]","chan":"stdout","logger":"task"}
{"timestamp":"2025-09-01T19:04:05.968199Z","level":"info","event":"         [ +0.000000 +1.441945 +1.122523 ]","chan":"stdout","logger":"task"}
{"timestamp":"2025-09-01T19:04:05.968710Z","level":"info","event":"     Net charge: 0   dipole magnitude: 0.927204","chan":"stdout","logger":"task"}
{"timestamp":"2025-09-01T19:04:05.969157Z","level":"info","event":"     Initializing spherical shell mfKernel with radius 2.61727 Bohr","chan":"stdout","logger":"task"}
{"timestamp":"2025-09-01T19:04:05.969565Z","level":"info","event":"     deltaS corrections:","chan":"stdout","logger":"task"}
{"timestamp":"2025-09-01T19:04:05.969988Z","level":"info","event":"       site 'O': -7.54299","chan":"stdout","logger":"task"}
{"timestamp":"2025-09-01T19:04:05.970306Z","level":"info","event":"       site 'H': -6.83917","chan":"stdout","logger":"task"}
{"timestamp":"2025-09-01T19:04:05.970719Z","level":"info","event":"   Initializing fluid molecule 'Na+'","chan":"stdout","logger":"task"}
{"timestamp":"2025-09-01T19:04:05.971054Z","level":"info","event":"     Initializing site 'Na'","chan":"stdout","logger":"task"}
{"timestamp":"2025-09-01T19:04:05.971419Z","level":"info","event":"       Electron density: proportional to exp(-r/0.19682)*erfc((r-0.71491)/0.41314) with norm 8.1383","chan":"stdout","logger":"task"}
{"timestamp":"2025-09-01T19:04:05.971883Z","level":"info","event":"       Charge density: gaussian nuclear width 0.365347 with net site charge -1","chan":"stdout","logger":"task"}
{"timestamp":"2025-09-01T19:04:05.972175Z","level":"info","event":"       Hard sphere radius: 1.86327 bohrs","chan":"stdout","logger":"task"}
{"timestamp":"2025-09-01T19:04:05.972536Z","level":"info","event":"       Positions in reference frame:","chan":"stdout","logger":"task"}
{"timestamp":"2025-09-01T19:04:05.972908Z","level":"info","event":"         [ +0.000000 +0.000000 +0.000000 ]","chan":"stdout","logger":"task"}
{"timestamp":"2025-09-01T19:04:05.973154Z","level":"info","event":"     Net charge: -1   dipole magnitude: 0","chan":"stdout","logger":"task"}
{"timestamp":"2025-09-01T19:04:05.979010Z","level":"info","event":"     Initializing gaussian mfKernel with width: 1.55004 Bohr","chan":"stdout","logger":"task"}
{"timestamp":"2025-09-01T19:04:05.979590Z","level":"info","event":"     deltaS corrections:","chan":"stdout","logger":"task"}
{"timestamp":"2025-09-01T19:04:05.980009Z","level":"info","event":"       site 'Na': -22.3555","chan":"stdout","logger":"task"}
{"timestamp":"2025-09-01T19:04:05.980792Z","level":"info","event":"   Initializing fluid molecule 'F-'","chan":"stdout","logger":"task"}
{"timestamp":"2025-09-01T19:04:05.981146Z","level":"info","event":"     Initializing site 'F'","chan":"stdout","logger":"task"}
{"timestamp":"2025-09-01T19:04:05.981554Z","level":"info","event":"       Electron density: proportional to exp(-r/0.38886)*erfc((r-0)/0.438782) with norm 8","chan":"stdout","logger":"task"}
{"timestamp":"2025-09-01T19:04:05.982334Z","level":"info","event":"       Charge density: gaussian nuclear width 0.374796 with net site charge 1","chan":"stdout","logger":"task"}
{"timestamp":"2025-09-01T19:04:05.982745Z","level":"info","event":"       Hard sphere radius: 2.39995 bohrs","chan":"stdout","logger":"task"}
{"timestamp":"2025-09-01T19:04:05.983226Z","level":"info","event":"       Positions in reference frame:","chan":"stdout","logger":"task"}
{"timestamp":"2025-09-01T19:04:05.983627Z","level":"info","event":"         [ +0.000000 +0.000000 +0.000000 ]","chan":"stdout","logger":"task"}
{"timestamp":"2025-09-01T19:04:05.984002Z","level":"info","event":"     Net charge: 1   dipole magnitude: 0","chan":"stdout","logger":"task"}
{"timestamp":"2025-09-01T19:04:05.984466Z","level":"info","event":"     Initializing gaussian mfKernel with width: 1.59012 Bohr","chan":"stdout","logger":"task"}
{"timestamp":"2025-09-01T19:04:05.985028Z","level":"info","event":"     deltaS corrections:","chan":"stdout","logger":"task"}
{"timestamp":"2025-09-01T19:04:05.985436Z","level":"info","event":"       site 'F': -9.04335","chan":"stdout","logger":"task"}
{"timestamp":"2025-09-01T19:04:05.985876Z","level":"info","event":"","chan":"stdout","logger":"task"}
{"timestamp":"2025-09-01T19:04:05.986446Z","level":"info","event":"Correction to mu due to finite nuclear width = -0.115287","chan":"stdout","logger":"task"}
{"timestamp":"2025-09-01T19:04:05.986775Z","level":"info","event":"   Cavity determined by nc: 0.00142 and sigma: 0.707107","chan":"stdout","logger":"task"}
{"timestamp":"2025-09-01T19:04:05.987256Z","level":"info","event":"   Nonlocal vdW cavity from gaussian model electron density with norm = 8 and sigma = 0.993594 bohr","chan":"stdout","logger":"task"}
{"timestamp":"2025-09-01T19:04:05.987700Z","level":"info","event":"   Charge asymmetry in cavity with sensitivity pCavity = 36.5 e-bohr/Eh","chan":"stdout","logger":"task"}
{"timestamp":"2025-09-01T19:04:05.989060Z","level":"info","event":"   Electrostatic cavity expanded by eta = 1.46 bohrs","chan":"stdout","logger":"task"}
{"timestamp":"2025-09-01T19:04:05.989492Z","level":"info","event":"   Weighted density cavitation model constrained by Nbulk: 0.0049383 bohr^-3, Pvap: 3.14029 kPa, Rvdw: 2.61727 bohr and sigmaBulk: 4.62e-05 Eh/bohr^2 at T: 298 K.","chan":"stdout","logger":"task"}
{"timestamp":"2025-09-01T19:04:05.989940Z","level":"info","event":"   Weighted density dispersion model using vdW pair potentials with single solvent site with sqrtC6eff: 0.77 SI.","chan":"stdout","logger":"task"}
{"timestamp":"2025-09-01T19:04:05.990319Z","level":"info","event":"","chan":"stdout","logger":"task"}
{"timestamp":"2025-09-01T19:04:05.991579Z","level":"info","event":"","chan":"stdout","logger":"task"}
{"timestamp":"2025-09-01T19:04:05.992447Z","level":"info","event":"---- Citations for features of the code used in this run ----","chan":"stdout","logger":"task"}
{"timestamp":"2025-09-01T19:04:05.992962Z","level":"info","event":"","chan":"stdout","logger":"task"}
{"timestamp":"2025-09-01T19:04:05.993342Z","level":"info","event":"   Software package:","chan":"stdout","logger":"task"}
{"timestamp":"2025-09-01T19:04:05.993716Z","level":"info","event":"      R. Sundararaman, K. Letchworth-Weaver, K.A. Schwarz, D. Gunceler, Y. Ozhabes and T.A. Arias, 'JDFTx: software for joint density-functional theory', SoftwareX 6, 278 (2017)","chan":"stdout","logger":"task"}
{"timestamp":"2025-09-01T19:04:05.994133Z","level":"info","event":"","chan":"stdout","logger":"task"}
{"timestamp":"2025-09-01T19:04:05.994498Z","level":"info","event":"   gga-PBE exchange-correlation functional:","chan":"stdout","logger":"task"}
{"timestamp":"2025-09-01T19:04:05.994867Z","level":"info","event":"      J.P. Perdew, K. Burke and M. Ernzerhof, Phys. Rev. Lett. 77, 3865 (1996)","chan":"stdout","logger":"task"}
{"timestamp":"2025-09-01T19:04:05.995260Z","level":"info","event":"","chan":"stdout","logger":"task"}
{"timestamp":"2025-09-01T19:04:05.995798Z","level":"info","event":"   Pseudopotentials:","chan":"stdout","logger":"task"}
{"timestamp":"2025-09-01T19:04:05.996173Z","level":"info","event":"      KF Garrity, JW Bennett, KM Rabe and D Vanderbilt, Comput. Mater. Sci. 81, 446 (2014)","chan":"stdout","logger":"task"}
{"timestamp":"2025-09-01T19:04:05.996534Z","level":"info","event":"","chan":"stdout","logger":"task"}
{"timestamp":"2025-09-01T19:04:05.996881Z","level":"info","event":"   DFT-D2 dispersion correction:","chan":"stdout","logger":"task"}
{"timestamp":"2025-09-01T19:04:05.997330Z","level":"info","event":"      S. Grimme, J. Comput. Chem. 27, 1787 (2006)","chan":"stdout","logger":"task"}
{"timestamp":"2025-09-01T19:04:05.997704Z","level":"info","event":"","chan":"stdout","logger":"task"}
{"timestamp":"2025-09-01T19:04:05.998015Z","level":"info","event":"   Charge-asymmetric nonlocally-determined local-electric (CANDLE) solvation model:","chan":"stdout","logger":"task"}
{"timestamp":"2025-09-01T19:04:05.998440Z","level":"info","event":"      R. Sundararaman and W.A. Goddard III, J. Chem. Phys. 142, 064107 (2015)","chan":"stdout","logger":"task"}
{"timestamp":"2025-09-01T19:04:05.998762Z","level":"info","event":"","chan":"stdout","logger":"task"}
{"timestamp":"2025-09-01T19:04:05.999075Z","level":"info","event":"   Total energy minimization with Auxiliary Hamiltonian:","chan":"stdout","logger":"task"}
{"timestamp":"2025-09-01T19:04:05.999420Z","level":"info","event":"      C. Freysoldt, S. Boeck, and J. Neugebauer, Phys. Rev. B 79, 241103(R) (2009)","chan":"stdout","logger":"task"}
{"timestamp":"2025-09-01T19:04:05.999843Z","level":"info","event":"","chan":"stdout","logger":"task"}
{"timestamp":"2025-09-01T19:04:06.000123Z","level":"info","event":"This list may not be complete. Please suggest additional citations or","chan":"stdout","logger":"task"}
{"timestamp":"2025-09-01T19:04:06.000450Z","level":"info","event":"report any other bugs at https://github.com/shankar1729/jdftx/issues","chan":"stdout","logger":"task"}
{"timestamp":"2025-09-01T19:04:06.000792Z","level":"info","event":"","chan":"stdout","logger":"task"}
{"timestamp":"2025-09-01T19:04:06.001484Z","level":"info","event":"Initialization completed successfully at t[s]:    226.10","chan":"stdout","logger":"task"}
{"timestamp":"2025-09-01T19:04:06.001765Z","level":"info","event":"","chan":"stdout","logger":"task"}
{"timestamp":"2025-09-01T19:04:06.313376Z","level":"info","event":"Fluid solver invoked on fresh (random / LCAO) wavefunctions","chan":"stdout","logger":"task"}
{"timestamp":"2025-09-01T19:04:06.315044Z","level":"info","event":"Running a vacuum solve first:","chan":"stdout","logger":"task"}
{"timestamp":"2025-09-01T19:04:06.315418Z","level":"info","event":"","chan":"stdout","logger":"task"}
{"timestamp":"2025-09-01T19:04:06.315770Z","level":"info","event":"-------- Initial electronic minimization -----------","chan":"stdout","logger":"task"}
{"timestamp":"2025-09-01T19:04:15.428545Z","level":"info","event":"\tFillingsUpdate:  mu: -0.014893974  nElectrons: 249.900000","chan":"stdout","logger":"task"}
{"timestamp":"2025-09-01T19:04:15.429703Z","level":"info","event":"ElecMinimize: Iter:   0  F: -959.291274764206491  |grad|_K:  1.718e-03  alpha:  1.000e+00","chan":"stdout","logger":"task"}
{"timestamp":"2025-09-01T19:04:27.110074Z","level":"info","event":"\tFillingsUpdate:  mu: -0.013944099  nElectrons: 249.900000","chan":"stdout","logger":"task"}
{"timestamp":"2025-09-01T19:04:27.114574Z","level":"info","event":"\tSubspaceRotationAdjust: set factor to 0.668","chan":"stdout","logger":"task"}
{"timestamp":"2025-09-01T19:04:27.115015Z","level":"info","event":"ElecMinimize: Iter:   1  F: -960.405768022069537  |grad|_K:  1.456e-03  alpha:  4.553e-01  linmin:  3.419e-04  t[s]:    247.26","chan":"stdout","logger":"task"}
{"timestamp":"2025-09-01T19:04:39.553630Z","level":"info","event":"\tFillingsUpdate:  mu: -0.019483678  nElectrons: 249.900000","chan":"stdout","logger":"task"}
{"timestamp":"2025-09-01T19:04:39.558079Z","level":"info","event":"\tSubspaceRotationAdjust: set factor to 0.42","chan":"stdout","logger":"task"}
{"timestamp":"2025-09-01T19:04:39.558688Z","level":"info","event":"ElecMinimize: Iter:   2  F: -960.531939337904646  |grad|_K:  1.193e-03  alpha:  8.416e-02  linmin:  2.324e-03  t[s]:    259.70","chan":"stdout","logger":"task"}
{"timestamp":"2025-09-01T19:04:51.838231Z","level":"info","event":"\tFillingsUpdate:  mu: -0.020597993  nElectrons: 249.900000","chan":"stdout","logger":"task"}
{"timestamp":"2025-09-01T19:04:51.842357Z","level":"info","event":"\tSubspaceRotationAdjust: set factor to 0.322","chan":"stdout","logger":"task"}
{"timestamp":"2025-09-01T19:04:51.843043Z","level":"info","event":"ElecMinimize: Iter:   3  F: -960.745767694192750  |grad|_K:  8.273e-04  alpha:  2.027e-01  linmin: -9.602e-04  t[s]:    271.98","chan":"stdout","logger":"task"}
{"timestamp":"2025-09-01T19:05:03.679703Z","level":"info","event":"\tFillingsUpdate:  mu: -0.033945931  nElectrons: 249.900000","chan":"stdout","logger":"task"}
{"timestamp":"2025-09-01T19:05:03.684121Z","level":"info","event":"\tSubspaceRotationAdjust: set factor to 0.271","chan":"stdout","logger":"task"}
{"timestamp":"2025-09-01T19:05:03.685383Z","level":"info","event":"ElecMinimize: Iter:   4  F: -960.852622855337472  |grad|_K:  6.071e-04  alpha:  1.755e-01  linmin: -1.318e-04  t[s]:    283.83","chan":"stdout","logger":"task"}
{"timestamp":"2025-09-01T19:05:16.279993Z","level":"info","event":"\tFillingsUpdate:  mu: -0.038876473  nElectrons: 249.900000","chan":"stdout","logger":"task"}
{"timestamp":"2025-09-01T19:05:16.284305Z","level":"info","event":"\tSubspaceRotationAdjust: set factor to 0.226","chan":"stdout","logger":"task"}
{"timestamp":"2025-09-01T19:05:16.284992Z","level":"info","event":"ElecMinimize: Iter:   5  F: -960.917256987833412  |grad|_K:  4.419e-04  alpha:  2.079e-01  linmin:  7.332e-04  t[s]:    296.43","chan":"stdout","logger":"task"}
{"timestamp":"2025-09-01T19:05:28.657888Z","level":"info","event":"\tFillingsUpdate:  mu: -0.032681162  nElectrons: 249.900000","chan":"stdout","logger":"task"}
{"timestamp":"2025-09-01T19:05:28.662313Z","level":"info","event":"\tSubspaceRotationAdjust: set factor to 0.237","chan":"stdout","logger":"task"}
{"timestamp":"2025-09-01T19:05:28.663255Z","level":"info","event":"ElecMinimize: Iter:   6  F: -960.953349154662760  |grad|_K:  3.039e-04  alpha:  2.275e-01  linmin:  1.982e-04  t[s]:    308.80","chan":"stdout","logger":"task"}
{"timestamp":"2025-09-01T19:05:41.111409Z","level":"info","event":"\tFillingsUpdate:  mu: -0.033383876  nElectrons: 249.900000","chan":"stdout","logger":"task"}
{"timestamp":"2025-09-01T19:05:41.116276Z","level":"info","event":"\tSubspaceRotationAdjust: set factor to 0.192","chan":"stdout","logger":"task"}
{"timestamp":"2025-09-01T19:05:41.116952Z","level":"info","event":"ElecMinimize: Iter:   7  F: -960.973937554067334  |grad|_K:  2.609e-04  alpha:  2.661e-01  linmin: -1.609e-04  t[s]:    321.26","chan":"stdout","logger":"task"}
{"timestamp":"2025-09-01T19:05:53.786487Z","level":"info","event":"\tFillingsUpdate:  mu: -0.029912218  nElectrons: 249.900000","chan":"stdout","logger":"task"}
{"timestamp":"2025-09-01T19:05:53.790017Z","level":"info","event":"\tSubspaceRotationAdjust: set factor to 0.274","chan":"stdout","logger":"task"}
{"timestamp":"2025-09-01T19:05:53.790432Z","level":"info","event":"ElecMinimize: Iter:   8  F: -960.990169984959380  |grad|_K:  1.663e-04  alpha:  2.799e-01  linmin:  6.209e-05  t[s]:    333.93","chan":"stdout","logger":"task"}
{"timestamp":"2025-09-01T19:06:05.667572Z","level":"info","event":"\tFillingsUpdate:  mu: -0.030250341  nElectrons: 249.900000","chan":"stdout","logger":"task"}
{"timestamp":"2025-09-01T19:06:05.671286Z","level":"info","event":"\tSubspaceRotationAdjust: set factor to 0.232","chan":"stdout","logger":"task"}
{"timestamp":"2025-09-01T19:06:05.671820Z","level":"info","event":"ElecMinimize: Iter:   9  F: -960.996598200974631  |grad|_K:  1.574e-04  alpha:  2.762e-01  linmin:  1.518e-04  t[s]:    345.81","chan":"stdout","logger":"task"}
{"timestamp":"2025-09-01T19:06:16.997801Z","level":"info","event":"\tFillingsUpdate:  mu: -0.027776832  nElectrons: 249.900000","chan":"stdout","logger":"task"}
{"timestamp":"2025-09-01T19:06:17.002163Z","level":"info","event":"\tSubspaceRotationAdjust: set factor to 0.329","chan":"stdout","logger":"task"}
{"timestamp":"2025-09-01T19:06:17.002710Z","level":"info","event":"ElecMinimize: Iter:  10  F: -961.002933288045938  |grad|_K:  1.044e-04  alpha:  3.058e-01  linmin:  1.029e-04  t[s]:    357.14","chan":"stdout","logger":"task"}
{"timestamp":"2025-09-01T19:06:28.678943Z","level":"info","event":"\tFillingsUpdate:  mu: -0.028328872  nElectrons: 249.900000","chan":"stdout","logger":"task"}
{"timestamp":"2025-09-01T19:06:28.682397Z","level":"info","event":"\tSubspaceRotationAdjust: set factor to 0.242","chan":"stdout","logger":"task"}
{"timestamp":"2025-09-01T19:06:28.682834Z","level":"info","event":"ElecMinimize: Iter:  11  F: -961.005983721685766  |grad|_K:  1.205e-04  alpha:  3.339e-01  linmin:  8.195e-05  t[s]:    368.82","chan":"stdout","logger":"task"}
{"timestamp":"2025-09-01T19:06:40.104352Z","level":"info","event":"\tFillingsUpdate:  mu: -0.027081676  nElectrons: 249.900000","chan":"stdout","logger":"task"}
{"timestamp":"2025-09-01T19:06:40.107951Z","level":"info","event":"\tSubspaceRotationAdjust: set factor to 0.258","chan":"stdout","logger":"task"}
{"timestamp":"2025-09-01T19:06:40.108403Z","level":"info","event":"ElecMinimize: Iter:  12  F: -961.008825015996536  |grad|_K:  7.070e-05  alpha:  2.317e-01  linmin:  3.028e-05  t[s]:    380.25","chan":"stdout","logger":"task"}
{"timestamp":"2025-09-01T19:06:51.822071Z","level":"info","event":"\tFillingsUpdate:  mu: -0.028383053  nElectrons: 249.900000","chan":"stdout","logger":"task"}
{"timestamp":"2025-09-01T19:06:51.826932Z","level":"info","event":"\tSubspaceRotationAdjust: set factor to 0.243","chan":"stdout","logger":"task"}
{"timestamp":"2025-09-01T19:06:51.827715Z","level":"info","event":"ElecMinimize: Iter:  13  F: -961.010539636650492  |grad|_K:  6.450e-05  alpha:  4.079e-01  linmin:  7.536e-05  t[s]:    391.97","chan":"stdout","logger":"task"}
{"timestamp":"2025-09-01T19:07:03.880762Z","level":"info","event":"\tFillingsUpdate:  mu: -0.028209279  nElectrons: 249.900000","chan":"stdout","logger":"task"}
{"timestamp":"2025-09-01T19:07:03.886323Z","level":"info","event":"\tSubspaceRotationAdjust: set factor to 0.194","chan":"stdout","logger":"task"}
{"timestamp":"2025-09-01T19:07:03.886806Z","level":"info","event":"ElecMinimize: Iter:  14  F: -961.011342644592560  |grad|_K:  4.663e-05  alpha:  2.296e-01  linmin:  4.499e-06  t[s]:    404.03","chan":"stdout","logger":"task"}
{"timestamp":"2025-09-01T19:07:16.254077Z","level":"info","event":"\tFillingsUpdate:  mu: -0.027917267  nElectrons: 249.900000","chan":"stdout","logger":"task"}
{"timestamp":"2025-09-01T19:07:16.257941Z","level":"info","event":"\tSubspaceRotationAdjust: set factor to 0.231","chan":"stdout","logger":"task"}
{"timestamp":"2025-09-01T19:07:16.258490Z","level":"info","event":"ElecMinimize: Iter:  15  F: -961.011979453763161  |grad|_K:  3.403e-05  alpha:  3.472e-01  linmin:  5.513e-05  t[s]:    416.40","chan":"stdout","logger":"task"}
{"timestamp":"2025-09-01T19:07:16.259018Z","level":"info","event":"ElecMinimize: None of the convergence criteria satisfied after 15 iterations.","chan":"stdout","logger":"task"}
{"timestamp":"2025-09-01T19:07:16.259552Z","level":"info","event":"Setting wave functions to eigenvectors of Hamiltonian","chan":"stdout","logger":"task"}
{"timestamp":"2025-09-01T19:07:16.282445Z","level":"info","event":"Vacuum energy after initial minimize, F = -961.011979453763161","chan":"stdout","logger":"task"}
{"timestamp":"2025-09-01T19:07:16.282855Z","level":"info","event":"","chan":"stdout","logger":"task"}
{"timestamp":"2025-09-01T19:07:16.283327Z","level":"info","event":"","chan":"stdout","logger":"task"}
{"timestamp":"2025-09-01T19:07:16.283702Z","level":"info","event":"-------- Electronic minimization -----------","chan":"stdout","logger":"task"}
{"timestamp":"2025-09-01T19:07:28.217475Z","level":"info","event":"\tLinear fluid (dielectric constant: 78.4, screening length: 5.74355 Bohr) occupying 0.389411 of unit cell:\tCompleted after 24 iterations at t[s]:    421.83","chan":"stdout","logger":"task"}
{"timestamp":"2025-09-01T19:07:28.220886Z","level":"info","event":"\tFillingsUpdate:  mu: -0.204476902  nElectrons: 249.900000","chan":"stdout","logger":"task"}
{"timestamp":"2025-09-01T19:07:28.221508Z","level":"info","event":"ElecMinimize: Iter:   0  F: -960.978378387410089  |grad|_K:  4.020e-04  alpha:  1.000e+00","chan":"stdout","logger":"task"}
{"timestamp":"2025-09-01T19:07:35.479030Z","level":"info","event":"\tLinear fluid (dielectric constant: 78.4, screening length: 5.74355 Bohr) occupying 0.397208 of unit cell:\tCompleted after 22 iterations at t[s]:    432.38","chan":"stdout","logger":"task"}
{"timestamp":"2025-09-01T19:07:41.416932Z","level":"info","event":"\tLinear fluid (dielectric constant: 78.4, screening length: 5.74355 Bohr) occupying 0.390644 of unit cell:\tCompleted after 21 iterations at t[s]:    436.30","chan":"stdout","logger":"task"}
{"timestamp":"2025-09-01T19:07:41.419259Z","level":"info","event":"\tFillingsUpdate:  mu: -0.191283911  nElectrons: 249.900000","chan":"stdout","logger":"task"}
{"timestamp":"2025-09-01T19:07:41.420885Z","level":"info","event":"\tSubspaceRotationAdjust: set factor to 0.106","chan":"stdout","logger":"task"}
{"timestamp":"2025-09-01T19:07:41.421405Z","level":"info","event":"ElecMinimize: Iter:   1  F: -960.999734237278062  |grad|_K:  1.991e-04  alpha:  2.947e-01  linmin:  1.020e-02  t[s]:    441.56","chan":"stdout","logger":"task"}
{"timestamp":"2025-09-01T19:07:48.780002Z","level":"info","event":"\tLinear fluid (dielectric constant: 78.4, screening length: 5.74355 Bohr) occupying 0.391504 of unit cell:\tCompleted after 17 iterations at t[s]:    445.59","chan":"stdout","logger":"task"}
{"timestamp":"2025-09-01T19:07:55.147703Z","level":"info","event":"\tLinear fluid (dielectric constant: 78.4, screening length: 5.74355 Bohr) occupying 0.391903 of unit cell:\tCompleted after 16 iterations at t[s]:    449.53","chan":"stdout","logger":"task"}
{"timestamp":"2025-09-01T19:07:55.148366Z","level":"info","event":"\tFillingsUpdate:  mu: -0.185207235  nElectrons: 249.900000","chan":"stdout","logger":"task"}
{"timestamp":"2025-09-01T19:07:55.151957Z","level":"info","event":"\tSubspaceRotationAdjust: set factor to 0.0588","chan":"stdout","logger":"task"}
{"timestamp":"2025-09-01T19:07:55.152494Z","level":"info","event":"ElecMinimize: Iter:   2  F: -961.008906166808174  |grad|_K:  6.046e-05  alpha:  4.296e-01  linmin:  1.999e-04  t[s]:    455.29","chan":"stdout","logger":"task"}
{"timestamp":"2025-09-01T19:08:03.092047Z","level":"info","event":"\tLinear fluid (dielectric constant: 78.4, screening length: 5.74355 Bohr) occupying 0.392523 of unit cell:\tCompleted after 15 iterations at t[s]:    459.53","chan":"stdout","logger":"task"}
{"timestamp":"2025-09-01T19:08:10.072887Z","level":"info","event":"\tLinear fluid (dielectric constant: 78.4, screening length: 5.74355 Bohr) occupying 0.392975 of unit cell:\tCompleted after 15 iterations at t[s]:    463.81","chan":"stdout","logger":"task"}
{"timestamp":"2025-09-01T19:08:10.073366Z","level":"info","event":"\tFillingsUpdate:  mu: -0.182200936  nElectrons: 249.900000","chan":"stdout","logger":"task"}
{"timestamp":"2025-09-01T19:08:10.076704Z","level":"info","event":"\tSubspaceRotationAdjust: set factor to 0.0686","chan":"stdout","logger":"task"}
{"timestamp":"2025-09-01T19:08:10.077793Z","level":"info","event":"ElecMinimize: Iter:   3  F: -961.011192085880225  |grad|_K:  5.541e-05  alpha:  7.514e-01  linmin: -7.873e-06  t[s]:    470.22","chan":"stdout","logger":"task"}
{"timestamp":"2025-09-01T19:08:17.255609Z","level":"info","event":"\tLinear fluid (dielectric constant: 78.4, screening length: 5.74355 Bohr) occupying 0.394536 of unit cell:\tCompleted after 15 iterations at t[s]:    474.14","chan":"stdout","logger":"task"}
{"timestamp":"2025-09-01T19:08:23.140771Z","level":"info","event":"\tLinear fluid (dielectric constant: 78.4, screening length: 5.74355 Bohr) occupying 0.394471 of unit cell:\tCompleted after 8 iterations at t[s]:    477.69","chan":"stdout","logger":"task"}
{"timestamp":"2025-09-01T19:08:23.141330Z","level":"info","event":"\tFillingsUpdate:  mu: -0.179192049  nElectrons: 249.900000","chan":"stdout","logger":"task"}
{"timestamp":"2025-09-01T19:08:23.144462Z","level":"info","event":"\tSubspaceRotationAdjust: set factor to 0.0793","chan":"stdout","logger":"task"}
{"timestamp":"2025-09-01T19:08:23.145121Z","level":"info","event":"ElecMinimize: Iter:   4  F: -961.013060588872349  |grad|_K:  5.375e-05  alpha:  7.188e-01  linmin: -1.500e-05  t[s]:    483.29","chan":"stdout","logger":"task"}
{"timestamp":"2025-09-01T19:08:30.277227Z","level":"info","event":"\tLinear fluid (dielectric constant: 78.4, screening length: 5.74355 Bohr) occupying 0.396208 of unit cell:\tCompleted after 15 iterations at t[s]:    487.04","chan":"stdout","logger":"task"}
{"timestamp":"2025-09-01T19:08:37.259487Z","level":"info","event":"\tLinear fluid (dielectric constant: 78.4, screening length: 5.74355 Bohr) occupying 0.396049 of unit cell:\tCompleted after 10 iterations at t[s]:    490.77","chan":"stdout","logger":"task"}
{"timestamp":"2025-09-01T19:08:37.260751Z","level":"info","event":"\tFillingsUpdate:  mu: -0.176523321  nElectrons: 249.900000","chan":"stdout","logger":"task"}
{"timestamp":"2025-09-01T19:08:37.264976Z","level":"info","event":"\tSubspaceRotationAdjust: set factor to 0.0952","chan":"stdout","logger":"task"}
{"timestamp":"2025-09-01T19:08:37.265541Z","level":"info","event":"ElecMinimize: Iter:   5  F: -961.014655056344964  |grad|_K:  4.544e-05  alpha:  6.494e-01  linmin: -1.611e-05  t[s]:    497.41","chan":"stdout","logger":"task"}
{"timestamp":"2025-09-01T19:08:45.130425Z","level":"info","event":"\tLinear fluid (dielectric constant: 78.4, screening length: 5.74355 Bohr) occupying 0.397215 of unit cell:\tCompleted after 15 iterations at t[s]:    501.80","chan":"stdout","logger":"task"}
{"timestamp":"2025-09-01T19:08:51.225348Z","level":"info","event":"\tLinear fluid (dielectric constant: 78.4, screening length: 5.74355 Bohr) occupying 0.397168 of unit cell:\tCompleted after 7 iterations at t[s]:    505.58","chan":"stdout","logger":"task"}
{"timestamp":"2025-09-01T19:08:51.225766Z","level":"info","event":"\tFillingsUpdate:  mu: -0.175153044  nElectrons: 249.900000","chan":"stdout","logger":"task"}
{"timestamp":"2025-09-01T19:08:51.228994Z","level":"info","event":"\tSubspaceRotationAdjust: set factor to 0.113","chan":"stdout","logger":"task"}
{"timestamp":"2025-09-01T19:08:51.229549Z","level":"info","event":"ElecMinimize: Iter:   6  F: -961.015749108962837  |grad|_K:  4.094e-05  alpha:  6.219e-01  linmin: -1.190e-05  t[s]:    511.37","chan":"stdout","logger":"task"}
{"timestamp":"2025-09-01T19:08:59.421339Z","level":"info","event":"\tLinear fluid (dielectric constant: 78.4, screening length: 5.74355 Bohr) occupying 0.398128 of unit cell:\tCompleted after 13 iterations at t[s]:    515.59","chan":"stdout","logger":"task"}
{"timestamp":"2025-09-01T19:09:05.742894Z","level":"info","event":"\tLinear fluid (dielectric constant: 78.4, screening length: 5.74355 Bohr) occupying 0.398283 of unit cell:\tCompleted after 10 iterations at t[s]:    520.02","chan":"stdout","logger":"task"}
{"timestamp":"2025-09-01T19:09:05.744568Z","level":"info","event":"\tFillingsUpdate:  mu: -0.174113593  nElectrons: 249.900000","chan":"stdout","logger":"task"}
{"timestamp":"2025-09-01T19:09:05.747777Z","level":"info","event":"\tSubspaceRotationAdjust: set factor to 0.129","chan":"stdout","logger":"task"}
{"timestamp":"2025-09-01T19:09:05.748770Z","level":"info","event":"ElecMinimize: Iter:   7  F: -961.016797420989292  |grad|_K:  4.096e-05  alpha:  7.329e-01  linmin: -1.445e-05  t[s]:    525.89","chan":"stdout","logger":"task"}
[...]
{"timestamp":"2025-09-01T19:13:41.178381Z","level":"info","event":"ElecMinimize: Iter:   1  F: -961.054903689021216  |grad|_K:  3.001e-05  alpha:  7.851e-02  linmin:  3.253e-04  t[s]:     29.81","chan":"stdout","logger":"task"}
{"timestamp":"2025-09-01T19:13:49.010487Z","level":"info","event":"\tLinear fluid (dielectric constant: 78.4, screening length: 5.74355 Bohr) occupying 0.405695 of unit cell:\tCompleted after 12 iterations at t[s]:     33.78","chan":"stdout","logger":"task"}
{"timestamp":"2025-09-01T19:13:54.765463Z","level":"info","event":"\tLinear fluid (dielectric constant: 78.4, screening length: 5.74355 Bohr) occupying 0.405690 of unit cell:\tCompleted after 12 iterations at t[s]:     38.08","chan":"stdout","logger":"task"}
{"timestamp":"2025-09-01T19:13:54.766127Z","level":"info","event":"\tFillingsUpdate:  mu: -0.171114306  nElectrons: 250.100000","chan":"stdout","logger":"task"}
{"timestamp":"2025-09-01T19:13:54.768862Z","level":"info","event":"\tSubspaceRotationAdjust: set factor to 0.473","chan":"stdout","logger":"task"}
{"timestamp":"2025-09-01T19:13:54.769373Z","level":"info","event":"ElecMinimize: Iter:   2  F: -961.055021274353521  |grad|_K:  1.872e-05  alpha:  1.566e-01  linmin: -1.602e-05  t[s]:     43.41","chan":"stdout","logger":"task"}
{"timestamp":"2025-09-01T19:14:01.479580Z","level":"info","event":"\tLinear fluid (dielectric constant: 78.4, screening length: 5.74355 Bohr) occupying 0.405763 of unit cell:\tCompleted after 12 iterations at t[s]:     46.97","chan":"stdout","logger":"task"}
{"timestamp":"2025-09-01T19:14:07.300839Z","level":"info","event":"\tLinear fluid (dielectric constant: 78.4, screening length: 5.74355 Bohr) occupying 0.405791 of unit cell:\tCompleted after 11 iterations at t[s]:     50.50","chan":"stdout","logger":"task"}
{"timestamp":"2025-09-01T19:14:07.301450Z","level":"info","event":"\tFillingsUpdate:  mu: -0.172635834  nElectrons: 250.100000","chan":"stdout","logger":"task"}
{"timestamp":"2025-09-01T19:14:07.304994Z","level":"info","event":"\tSubspaceRotationAdjust: set factor to 0.337","chan":"stdout","logger":"task"}
{"timestamp":"2025-09-01T19:14:07.305668Z","level":"info","event":"ElecMinimize: Iter:   3  F: -961.055084868564904  |grad|_K:  9.928e-06  alpha:  2.144e-01  linmin: -6.476e-06  t[s]:     55.94","chan":"stdout","logger":"task"}
{"timestamp":"2025-09-01T19:14:13.793730Z","level":"info","event":"\tLinear fluid (dielectric constant: 78.4, screening length: 5.74355 Bohr) occupying 0.405868 of unit cell:\tCompleted after 9 iterations at t[s]:     59.36","chan":"stdout","logger":"task"}
{"timestamp":"2025-09-01T19:14:19.985741Z","level":"info","event":"\tLinear fluid (dielectric constant: 78.4, screening length: 5.74355 Bohr) occupying 0.405936 of unit cell:\tCompleted after 9 iterations at t[s]:     62.75","chan":"stdout","logger":"task"}
{"timestamp":"2025-09-01T19:14:19.986238Z","level":"info","event":"\tFillingsUpdate:  mu: -0.172975770  nElectrons: 250.100000","chan":"stdout","logger":"task"}
{"timestamp":"2025-09-01T19:14:19.990557Z","level":"info","event":"\tSubspaceRotationAdjust: set factor to 0.292","chan":"stdout","logger":"task"}
{"timestamp":"2025-09-01T19:14:19.991382Z","level":"info","event":"ElecMinimize: Iter:   4  F: -961.055118353866419  |grad|_K:  7.620e-06  alpha:  4.020e-01  linmin:  6.412e-06  t[s]:     68.63","chan":"stdout","logger":"task"}
{"timestamp":"2025-09-01T19:14:27.165752Z","level":"info","event":"\tLinear fluid (dielectric constant: 78.4, screening length: 5.74355 Bohr) occupying 0.406043 of unit cell:\tCompleted after 12 iterations at t[s]:     72.57","chan":"stdout","logger":"task"}
{"timestamp":"2025-09-01T19:14:32.836348Z","level":"info","event":"\tLinear fluid (dielectric constant: 78.4, screening length: 5.74355 Bohr) occupying 0.406027 of unit cell:\tCompleted after 5 iterations at t[s]:     76.04","chan":"stdout","logger":"task"}
{"timestamp":"2025-09-01T19:14:32.837218Z","level":"info","event":"\tFillingsUpdate:  mu: -0.173097872  nElectrons: 250.100000","chan":"stdout","logger":"task"}
{"timestamp":"2025-09-01T19:14:32.839900Z","level":"info","event":"\tSubspaceRotationAdjust: set factor to 0.242","chan":"stdout","logger":"task"}
{"timestamp":"2025-09-01T19:14:32.840268Z","level":"info","event":"ElecMinimize: Iter:   5  F: -961.055135179805802  |grad|_K:  6.064e-06  alpha:  3.433e-01  linmin: -1.146e-05  t[s]:     81.48","chan":"stdout","logger":"task"}
{"timestamp":"2025-09-01T19:14:32.840650Z","level":"info","event":"ElecMinimize: Converged (|Delta F|<5.000000e-05 for 2 iters).","chan":"stdout","logger":"task"}
{"timestamp":"2025-09-01T19:14:32.840912Z","level":"info","event":"Setting wave functions to eigenvectors of Hamiltonian","chan":"stdout","logger":"task"}
{"timestamp":"2025-09-01T19:14:40.931775Z","level":"info","event":"","chan":"stdout","logger":"task"}
{"timestamp":"2025-09-01T19:14:40.932497Z","level":"info","event":"# Ionic positions in cartesian coordinates:","chan":"stdout","logger":"task"}
{"timestamp":"2025-09-01T19:14:40.932977Z","level":"info","event":"ion V   0.000297000000000   0.000206000000000  40.527760999999998 1","chan":"stdout","logger":"task"}
{"timestamp":"2025-09-01T19:14:40.933292Z","level":"info","event":"ion V  -2.867357999999999   4.115779999999999  33.076448999999997 1","chan":"stdout","logger":"task"}
{"timestamp":"2025-09-01T19:14:40.933574Z","level":"info","event":"ion V   0.000297000000000   0.000206000000000  51.335754999999992 1","chan":"stdout","logger":"task"}
{"timestamp":"2025-09-01T19:14:40.934166Z","level":"info","event":"ion V  -2.867357999999999   4.115779999999999  43.884442999999983 1","chan":"stdout","logger":"task"}
{"timestamp":"2025-09-01T19:14:40.934451Z","level":"info","event":"ion V   2.087893999999999   6.178677999999999  29.394374999999997 1","chan":"stdout","logger":"task"}
{"timestamp":"2025-09-01T19:14:40.935451Z","level":"info","event":"ion V   2.923822000000000   2.052782000000000  35.129578999999993 1","chan":"stdout","logger":"task"}
{"timestamp":"2025-09-01T19:14:40.935818Z","level":"info","event":"ion V   0.000297000000000   0.000206000000000  62.143747999999995 1","chan":"stdout","logger":"task"}
{"timestamp":"2025-09-01T19:14:40.936635Z","level":"info","event":"ion V  -2.867357999999999   4.115779999999999  54.692435999999994 1","chan":"stdout","logger":"task"}
{"timestamp":"2025-09-01T19:14:40.937090Z","level":"info","event":"ion V   2.087893999999999   6.178677999999999  40.202368999999983 1","chan":"stdout","logger":"task"}
{"timestamp":"2025-09-01T19:14:40.937716Z","level":"info","event":"ion V   2.923822000000000   2.052782000000000  45.937573000000000 1","chan":"stdout","logger":"task"}
{"timestamp":"2025-09-01T19:14:40.938182Z","level":"info","event":"ion O  -0.406594999999999   3.963560999999999  29.978448999999998 1","chan":"stdout","logger":"task"}
{"timestamp":"2025-09-01T19:14:40.938568Z","level":"info","event":"ion O  -3.080845999999999   7.974219999999999  22.816246999999997 1","chan":"stdout","logger":"task"}
{"timestamp":"2025-09-01T19:14:40.938933Z","level":"info","event":"ion O   8.092021000000001   0.256846000000000  30.899395999999992 1","chan":"stdout","logger":"task"}
{"timestamp":"2025-09-01T19:14:40.939388Z","level":"info","event":"ion O   5.417259000000000   4.267018999999999  23.737565000000000 1","chan":"stdout","logger":"task"}
{"timestamp":"2025-09-01T19:14:40.939706Z","level":"info","event":"ion O  -0.406594999999999   3.963560999999999  40.786441999999994 1","chan":"stdout","logger":"task"}
{"timestamp":"2025-09-01T19:14:40.940726Z","level":"info","event":"ion O   4.781548000000001   4.427946999999999  29.221173999999994 1","chan":"stdout","logger":"task"}
{"timestamp":"2025-09-01T19:14:40.941299Z","level":"info","event":"ion O   2.336115000000000   7.929795999999998  21.273168999999999 1","chan":"stdout","logger":"task"}
{"timestamp":"2025-09-01T19:14:40.941643Z","level":"info","event":"ion O  -3.080845999999999   7.974219999999999  33.624240999999998 1","chan":"stdout","logger":"task"}
{"timestamp":"2025-09-01T19:14:40.943045Z","level":"info","event":"ion O   8.092021000000001   0.256846000000000  41.707389999999990 1","chan":"stdout","logger":"task"}
{"timestamp":"2025-09-01T19:14:40.943350Z","level":"info","event":"ion O   2.674004000000000   0.301442000000000  43.251495999999996 1","chan":"stdout","logger":"task"}
{"timestamp":"2025-09-01T19:14:40.943687Z","level":"info","event":"ion O   0.229520000000000   3.803208999999999  35.304034999999999 1","chan":"stdout","logger":"task"}
{"timestamp":"2025-09-01T19:14:40.943993Z","level":"info","event":"ion O   5.417259000000000   4.267018999999999  34.545558999999997 1","chan":"stdout","logger":"task"}
{"timestamp":"2025-09-01T19:14:40.944332Z","level":"info","event":"ion O  -0.406594999999999   3.963560999999999  51.594435999999995 1","chan":"stdout","logger":"task"}
{"timestamp":"2025-09-01T19:14:40.945491Z","level":"info","event":"ion O   4.781548000000001   4.427946999999999  40.029167999999999 1","chan":"stdout","logger":"task"}
{"timestamp":"2025-09-01T19:14:40.945799Z","level":"info","event":"ion O   2.336115000000000   7.929795999999998  32.081162999999989 1","chan":"stdout","logger":"task"}
{"timestamp":"2025-09-01T19:14:40.947143Z","level":"info","event":"ion O  -3.080845999999999   7.974219999999999  44.432234000000001 1","chan":"stdout","logger":"task"}
{"timestamp":"2025-09-01T19:14:40.947558Z","level":"info","event":"ion O   8.092021000000001   0.256846000000000  52.515383999999983 1","chan":"stdout","logger":"task"}
{"timestamp":"2025-09-01T19:14:40.947854Z","level":"info","event":"ion O   2.674004000000000   0.301442000000000  54.059489999999990 1","chan":"stdout","logger":"task"}
{"timestamp":"2025-09-01T19:14:40.948217Z","level":"info","event":"ion O   0.229520000000000   3.803208999999999  46.112028999999993 1","chan":"stdout","logger":"task"}
{"timestamp":"2025-09-01T19:14:40.948692Z","level":"info","event":"ion O   5.417259000000000   4.267018999999999  45.353552999999991 1","chan":"stdout","logger":"task"}
{"timestamp":"2025-09-01T19:14:40.949057Z","level":"info","event":"","chan":"stdout","logger":"task"}
{"timestamp":"2025-09-01T19:14:40.949450Z","level":"info","event":"# Forces in Cartesian coordinates:","chan":"stdout","logger":"task"}
{"timestamp":"2025-09-01T19:14:40.949778Z","level":"info","event":"force V  -0.069338468517071  -0.072228685626627  -0.070376449282074 1","chan":"stdout","logger":"task"}
{"timestamp":"2025-09-01T19:14:40.950088Z","level":"info","event":"force V  -0.082548326410404  -0.070169924123463  -0.054504963106644 1","chan":"stdout","logger":"task"}
{"timestamp":"2025-09-01T19:14:40.950506Z","level":"info","event":"force V  -0.003336259646571  -0.003076766665646   0.024344266915269 1","chan":"stdout","logger":"task"}
{"timestamp":"2025-09-01T19:14:40.950815Z","level":"info","event":"force V  -0.003291816819975  -0.002744885999036   0.023455941497936 1","chan":"stdout","logger":"task"}
{"timestamp":"2025-09-01T19:14:40.951210Z","level":"info","event":"force V   0.077951704525858  -0.057253633205249   0.111375013912346 1","chan":"stdout","logger":"task"}
{"timestamp":"2025-09-01T19:14:40.951490Z","level":"info","event":"force V  -0.060883242516064   0.007739664860656  -0.036328930679455 1","chan":"stdout","logger":"task"}
{"timestamp":"2025-09-01T19:14:40.952214Z","level":"info","event":"force V   0.045560746185163   0.094866988183595   0.033366004852267 1","chan":"stdout","logger":"task"}
{"timestamp":"2025-09-01T19:14:40.952805Z","level":"info","event":"force V   0.064381891731566   0.085796729793030   0.018437694258311 1","chan":"stdout","logger":"task"}
{"timestamp":"2025-09-01T19:14:40.953180Z","level":"info","event":"force V   0.035055484675855   0.006067941587644   0.029019172601775 1","chan":"stdout","logger":"task"}
{"timestamp":"2025-09-01T19:14:40.953799Z","level":"info","event":"force V  -0.063513512939941   0.051403566648747  -0.047797603110990 1","chan":"stdout","logger":"task"}
{"timestamp":"2025-09-01T19:14:40.954126Z","level":"info","event":"force O   0.074183357237230   0.017700422098710  -0.085395447318817 1","chan":"stdout","logger":"task"}
{"timestamp":"2025-09-01T19:14:40.955042Z","level":"info","event":"force O   0.058211648921646  -0.020894681553683  -0.069775845242896 1","chan":"stdout","logger":"task"}
{"timestamp":"2025-09-01T19:14:40.955572Z","level":"info","event":"force O  -0.052270783378230  -0.086013226103151   0.044703166579564 1","chan":"stdout","logger":"task"}
{"timestamp":"2025-09-01T19:14:40.955874Z","level":"info","event":"force O  -0.051735214441736  -0.102831893728597   0.046994146894185 1","chan":"stdout","logger":"task"}
{"timestamp":"2025-09-01T19:14:40.956415Z","level":"info","event":"force O   0.066327228894129   0.091540216844393  -0.057220772953539 1","chan":"stdout","logger":"task"}
{"timestamp":"2025-09-01T19:14:40.956787Z","level":"info","event":"force O  -0.118969303327982   0.032051951247303  -0.033399543223725 1","chan":"stdout","logger":"task"}
{"timestamp":"2025-09-01T19:14:40.957527Z","level":"info","event":"force O  -0.041321446657725   0.009032800065170  -0.029178754405867 1","chan":"stdout","logger":"task"}
{"timestamp":"2025-09-01T19:14:40.957838Z","level":"info","event":"force O   0.071527440205787   0.074674962559389  -0.058786666683393 1","chan":"stdout","logger":"task"}
{"timestamp":"2025-09-01T19:14:40.958393Z","level":"info","event":"force O  -0.073435105494511  -0.073608112431368   0.058180305557290 1","chan":"stdout","logger":"task"}
{"timestamp":"2025-09-01T19:14:40.958720Z","level":"info","event":"force O   0.073385113672532   0.030795809562893   0.106507608434298 1","chan":"stdout","logger":"task"}
{"timestamp":"2025-09-01T19:14:40.959503Z","level":"info","event":"force O   0.110750175571542  -0.034338223041800   0.051029711541128 1","chan":"stdout","logger":"task"}
{"timestamp":"2025-09-01T19:14:40.960155Z","level":"info","event":"force O  -0.063466342277648  -0.094080777961239   0.062929746676107 1","chan":"stdout","logger":"task"}
{"timestamp":"2025-09-01T19:14:40.960435Z","level":"info","event":"force O   0.050273851289932   0.106077480596706  -0.052689331610334 1","chan":"stdout","logger":"task"}
{"timestamp":"2025-09-01T19:14:40.961120Z","level":"info","event":"force O  -0.111747355464031   0.034029446199422  -0.049102753019325 1","chan":"stdout","logger":"task"}
{"timestamp":"2025-09-01T19:14:40.961475Z","level":"info","event":"force O  -0.075035661029350  -0.027939296970912  -0.110244150879082 1","chan":"stdout","logger":"task"}
{"timestamp":"2025-09-01T19:14:40.962029Z","level":"info","event":"force O   0.052953497881848   0.084311516198139  -0.044829259944004 1","chan":"stdout","logger":"task"}
{"timestamp":"2025-09-01T19:14:40.962323Z","level":"info","event":"force O  -0.054147854902918   0.015809090254605   0.074220384008406 1","chan":"stdout","logger":"task"}
{"timestamp":"2025-09-01T19:14:40.963068Z","level":"info","event":"force O   0.042351320751529  -0.010129563351609   0.036817528305050 1","chan":"stdout","logger":"task"}
{"timestamp":"2025-09-01T19:14:40.963492Z","level":"info","event":"force O   0.118111722525833  -0.031321109114148   0.028963585615350 1","chan":"stdout","logger":"task"}
{"timestamp":"2025-09-01T19:14:40.963856Z","level":"info","event":"force O  -0.074910233053553  -0.017508836622897   0.082675218035781 1","chan":"stdout","logger":"task"}
{"timestamp":"2025-09-01T19:14:40.964245Z","level":"info","event":"","chan":"stdout","logger":"task"}
{"timestamp":"2025-09-01T19:14:40.964496Z","level":"info","event":"# Energy components:","chan":"stdout","logger":"task"}
{"timestamp":"2025-09-01T19:14:40.965312Z","level":"info","event":"   A_diel =       -0.0896615901301973","chan":"stdout","logger":"task"}
{"timestamp":"2025-09-01T19:14:40.966000Z","level":"info","event":"   Eewald =     1419.7625376429457447","chan":"stdout","logger":"task"}
{"timestamp":"2025-09-01T19:14:40.966364Z","level":"info","event":"       EH =     2187.7122813385867630","chan":"stdout","logger":"task"}
{"timestamp":"2025-09-01T19:14:40.966625Z","level":"info","event":"     Eloc =    -4753.3198029256809605","chan":"stdout","logger":"task"}
{"timestamp":"2025-09-01T19:14:40.966974Z","level":"info","event":"      Enl =       -7.2328381422127492","chan":"stdout","logger":"task"}
{"timestamp":"2025-09-01T19:14:40.967313Z","level":"info","event":"      Exc =     -147.3540728684191663","chan":"stdout","logger":"task"}
{"timestamp":"2025-09-01T19:14:40.967630Z","level":"info","event":" Exc_core =       10.4306035930779153","chan":"stdout","logger":"task"}
{"timestamp":"2025-09-01T19:14:40.969059Z","level":"info","event":"       KE =      329.1439092671884623","chan":"stdout","logger":"task"}
{"timestamp":"2025-09-01T19:14:40.969589Z","level":"info","event":"  MuShift =       -0.0115286848179859","chan":"stdout","logger":"task"}
{"timestamp":"2025-09-01T19:14:40.970406Z","level":"info","event":"-------------------------------------","chan":"stdout","logger":"task"}
{"timestamp":"2025-09-01T19:14:40.970923Z","level":"info","event":"     Etot =     -960.9585723694618764","chan":"stdout","logger":"task"}
{"timestamp":"2025-09-01T19:14:40.971672Z","level":"info","event":"       TS =        0.0965628103439016","chan":"stdout","logger":"task"}
{"timestamp":"2025-09-01T19:14:40.973032Z","level":"info","event":"-------------------------------------","chan":"stdout","logger":"task"}
{"timestamp":"2025-09-01T19:14:40.973547Z","level":"info","event":"        F =     -961.0551351798058022","chan":"stdout","logger":"task"}
{"timestamp":"2025-09-01T19:14:40.974657Z","level":"info","event":"","chan":"stdout","logger":"task"}
{"timestamp":"2025-09-01T19:14:40.975277Z","level":"info","event":"IonicMinimize: Iter:   0  F: -961.055135179805802  |grad|_K:  6.320e-02  t[s]:     89.57","chan":"stdout","logger":"task"}
{"timestamp":"2025-09-01T19:14:41.130185Z","level":"info","event":"IonicMinimize: None of the convergence criteria satisfied after 0 iterations.","chan":"stdout","logger":"task"}
{"timestamp":"2025-09-01T19:14:41.130541Z","level":"info","event":"","chan":"stdout","logger":"task"}
{"timestamp":"2025-09-01T19:14:41.130821Z","level":"info","event":"#--- Lowdin population analysis ---","chan":"stdout","logger":"task"}
{"timestamp":"2025-09-01T19:14:41.131128Z","level":"info","event":"# oxidation-state V +1.545 +1.564 +1.552 +1.500 +1.660 +1.383 +1.558 +1.539 +1.400 +1.661","chan":"stdout","logger":"task"}
{"timestamp":"2025-09-01T19:14:41.131380Z","level":"info","event":"# oxidation-state O -0.741 -0.721 -0.665 -0.659 -0.687 -0.643 -0.787 -0.708 -0.708 -0.645 -0.633 -0.688 -0.660 -0.634 -0.646 -0.665 -0.720 -0.786 -0.643 -0.741","chan":"stdout","logger":"task"}
{"timestamp":"2025-09-01T19:14:41.131645Z","level":"info","event":"","chan":"stdout","logger":"task"}
{"timestamp":"2025-09-01T19:14:41.131899Z","level":"info","event":"","chan":"stdout","logger":"task"}
{"timestamp":"2025-09-01T19:14:41.137952Z","level":"info","event":"Dumping 'fillings' ... done","chan":"stdout","logger":"task"}
{"timestamp":"2025-09-01T19:14:41.220196Z","level":"info","event":"Dumping 'wfns' ... done","chan":"stdout","logger":"task"}
{"timestamp":"2025-09-01T19:14:41.234038Z","level":"info","event":"Dumping 'fluidState' ... done","chan":"stdout","logger":"task"}
{"timestamp":"2025-09-01T19:14:41.244502Z","level":"info","event":"Dumping 'eigenvals' ... done","chan":"stdout","logger":"task"}
{"timestamp":"2025-09-01T19:14:41.297175Z","level":"info","event":"End date and time: Mon Sep  1 19:14:41 2025  (Duration: 0-0:01:29.88)","chan":"stdout","logger":"task"}
{"timestamp":"2025-09-01T19:14:41.297848Z","level":"info","event":"Done!","chan":"stdout","logger":"task"}
{"timestamp":"2025-09-01T19:14:41.333319","level":"info","event":"Done. Returned value was: None","logger":"airflow.task.operators.airflow.providers.standard.decorators.python._PythonDecoratedOperator"}
