{"timestamp":"2025-09-01T19:33:07.484545","level":"info","event":"DAG bundles loaded: dags-folder","logger":"airflow.dag_processing.bundles.manager.DagBundlesManager"}
{"timestamp":"2025-09-01T19:33:07.485040","level":"info","event":"Filling up the DagBag from /opt/airflow/dags/my_dag.py","logger":"airflow.models.dagbag.DagBag"}
{"timestamp":"2025-09-01T19:33:12.764322Z","level":"info","event":"","chan":"stdout","logger":"task"}
{"timestamp":"2025-09-01T19:33:12.765144Z","level":"info","event":"*************** JDFTx 1.7.0  ***************","chan":"stdout","logger":"task"}
{"timestamp":"2025-09-01T19:33:12.765667Z","level":"info","event":"","chan":"stdout","logger":"task"}
{"timestamp":"2025-09-01T19:33:12.777487Z","level":"info","event":"Start date and time: Mon Sep  1 19:33:12 2025","chan":"stdout","logger":"task"}
{"timestamp":"2025-09-01T19:33:12.777827Z","level":"info","event":"Executable jdftx with command-line: -i /opt/airflow/output/gc_dft/mp-755394-111-3_-0.1.in","chan":"stdout","logger":"task"}
{"timestamp":"2025-09-01T19:33:12.778149Z","level":"info","event":"Running on hosts (process indices):  41a82e7e5a55 (0)","chan":"stdout","logger":"task"}
{"timestamp":"2025-09-01T19:33:12.778408Z","level":"info","event":"Divided in process groups (process indices):  0 (0)","chan":"stdout","logger":"task"}
{"timestamp":"2025-09-01T19:33:12.778658Z","level":"info","event":"Resource initialization completed at t[s]:      0.00","chan":"stdout","logger":"task"}
{"timestamp":"2025-09-01T19:33:12.778944Z","level":"info","event":"Run totals: 1 processes, 8 threads, 0 GPUs","chan":"stdout","logger":"task"}
{"timestamp":"2025-09-01T19:33:12.779244Z","level":"info","event":"","chan":"stdout","logger":"task"}
{"timestamp":"2025-09-01T19:33:12.779562Z","level":"info","event":"","chan":"stdout","logger":"task"}
{"timestamp":"2025-09-01T19:33:12.779943Z","level":"info","event":"Input parsed successfully to the following command list (including defaults):","chan":"stdout","logger":"task"}
{"timestamp":"2025-09-01T19:33:12.780322Z","level":"info","event":"","chan":"stdout","logger":"task"}
{"timestamp":"2025-09-01T19:33:12.780668Z","level":"info","event":"basis kpoint-dependent","chan":"stdout","logger":"task"}
{"timestamp":"2025-09-01T19:33:12.780912Z","level":"info","event":"coords-type Cartesian","chan":"stdout","logger":"task"}
{"timestamp":"2025-09-01T19:33:12.781125Z","level":"info","event":"core-overlap-check vector","chan":"stdout","logger":"task"}
{"timestamp":"2025-09-01T19:33:12.781355Z","level":"info","event":"coulomb-interaction Periodic","chan":"stdout","logger":"task"}
{"timestamp":"2025-09-01T19:33:12.781674Z","level":"info","event":"davidson-band-ratio 1.1","chan":"stdout","logger":"task"}
{"timestamp":"2025-09-01T19:33:12.781895Z","level":"info","event":"dump End State","chan":"stdout","logger":"task"}
{"timestamp":"2025-09-01T19:33:12.782167Z","level":"info","event":"dump-name $VAR","chan":"stdout","logger":"task"}
{"timestamp":"2025-09-01T19:33:12.782386Z","level":"info","event":"elec-cutoff 10","chan":"stdout","logger":"task"}
{"timestamp":"2025-09-01T19:33:12.782764Z","level":"info","event":"elec-eigen-algo Davidson","chan":"stdout","logger":"task"}
{"timestamp":"2025-09-01T19:33:12.783256Z","level":"info","event":"elec-ex-corr gga-PBE","chan":"stdout","logger":"task"}
{"timestamp":"2025-09-01T19:33:12.783838Z","level":"info","event":"elec-initial-charge -0.100000","chan":"stdout","logger":"task"}
{"timestamp":"2025-09-01T19:33:12.784097Z","level":"info","event":"elec-smearing Fermi 0.00734","chan":"stdout","logger":"task"}
{"timestamp":"2025-09-01T19:33:12.784595Z","level":"info","event":"electronic-minimize  \\","chan":"stdout","logger":"task"}
{"timestamp":"2025-09-01T19:33:12.784937Z","level":"info","event":"\tdirUpdateScheme      FletcherReeves \\","chan":"stdout","logger":"task"}
{"timestamp":"2025-09-01T19:33:12.785239Z","level":"info","event":"\tlinminMethod         DirUpdateRecommended \\","chan":"stdout","logger":"task"}
{"timestamp":"2025-09-01T19:33:12.785531Z","level":"info","event":"\tnIterations          30 \\","chan":"stdout","logger":"task"}
{"timestamp":"2025-09-01T19:33:12.785905Z","level":"info","event":"\thistory              15 \\","chan":"stdout","logger":"task"}
{"timestamp":"2025-09-01T19:33:12.786235Z","level":"info","event":"\tknormThreshold       0 \\","chan":"stdout","logger":"task"}
{"timestamp":"2025-09-01T19:33:12.786560Z","level":"info","event":"\tmaxThreshold         no \\","chan":"stdout","logger":"task"}
{"timestamp":"2025-09-01T19:33:12.786906Z","level":"info","event":"\tenergyDiffThreshold  1e-05 \\","chan":"stdout","logger":"task"}
{"timestamp":"2025-09-01T19:33:12.787455Z","level":"info","event":"\tnEnergyDiff          2 \\","chan":"stdout","logger":"task"}
{"timestamp":"2025-09-01T19:33:12.787716Z","level":"info","event":"\tconvergeAll          no \\","chan":"stdout","logger":"task"}
{"timestamp":"2025-09-01T19:33:12.788795Z","level":"info","event":"\talphaTstart          1 \\","chan":"stdout","logger":"task"}
{"timestamp":"2025-09-01T19:33:12.789289Z","level":"info","event":"\talphaTmin            1e-10 \\","chan":"stdout","logger":"task"}
{"timestamp":"2025-09-01T19:33:12.789698Z","level":"info","event":"\tupdateTestStepSize   yes \\","chan":"stdout","logger":"task"}
{"timestamp":"2025-09-01T19:33:12.790013Z","level":"info","event":"\talphaTreduceFactor   0.1 \\","chan":"stdout","logger":"task"}
{"timestamp":"2025-09-01T19:33:12.790427Z","level":"info","event":"\talphaTincreaseFactor 3 \\","chan":"stdout","logger":"task"}
{"timestamp":"2025-09-01T19:33:12.790730Z","level":"info","event":"\tnAlphaAdjustMax      3 \\","chan":"stdout","logger":"task"}
{"timestamp":"2025-09-01T19:33:12.790931Z","level":"info","event":"\twolfeEnergy          0.0001 \\","chan":"stdout","logger":"task"}
{"timestamp":"2025-09-01T19:33:12.791955Z","level":"info","event":"\twolfeGradient        0.9 \\","chan":"stdout","logger":"task"}
{"timestamp":"2025-09-01T19:33:12.792194Z","level":"info","event":"\tabortOnFailedStep    no \\","chan":"stdout","logger":"task"}
{"timestamp":"2025-09-01T19:33:12.792592Z","level":"info","event":"\tfdTest               no","chan":"stdout","logger":"task"}
{"timestamp":"2025-09-01T19:33:12.793142Z","level":"info","event":"exchange-regularization WignerSeitzTruncated","chan":"stdout","logger":"task"}
{"timestamp":"2025-09-01T19:33:12.793515Z","level":"info","event":"fluid LinearPCM 298.000000 1.013250","chan":"stdout","logger":"task"}
{"timestamp":"2025-09-01T19:33:12.793882Z","level":"info","event":"fluid-anion F- 1 MeanFieldLJ \\","chan":"stdout","logger":"task"}
{"timestamp":"2025-09-01T19:33:12.794183Z","level":"info","event":"\tepsBulk 1 \\","chan":"stdout","logger":"task"}
{"timestamp":"2025-09-01T19:33:12.794459Z","level":"info","event":"\tpMol 0 \\","chan":"stdout","logger":"task"}
{"timestamp":"2025-09-01T19:33:12.794727Z","level":"info","event":"\tepsInf 1 \\","chan":"stdout","logger":"task"}
{"timestamp":"2025-09-01T19:33:12.794960Z","level":"info","event":"\tPvap 0 \\","chan":"stdout","logger":"task"}
{"timestamp":"2025-09-01T19:33:12.795265Z","level":"info","event":"\tsigmaBulk 0 \\","chan":"stdout","logger":"task"}
{"timestamp":"2025-09-01T19:33:12.795528Z","level":"info","event":"\tRvdw 2.24877 \\","chan":"stdout","logger":"task"}
{"timestamp":"2025-09-01T19:33:12.795748Z","level":"info","event":"\tRes 0 \\","chan":"stdout","logger":"task"}
{"timestamp":"2025-09-01T19:33:12.795952Z","level":"info","event":"\ttauNuc 343133","chan":"stdout","logger":"task"}
{"timestamp":"2025-09-01T19:33:12.796164Z","level":"info","event":"fluid-cation Na+ 1 MeanFieldLJ \\","chan":"stdout","logger":"task"}
{"timestamp":"2025-09-01T19:33:12.796464Z","level":"info","event":"\tepsBulk 1 \\","chan":"stdout","logger":"task"}
{"timestamp":"2025-09-01T19:33:12.796713Z","level":"info","event":"\tpMol 0 \\","chan":"stdout","logger":"task"}
{"timestamp":"2025-09-01T19:33:12.796994Z","level":"info","event":"\tepsInf 1 \\","chan":"stdout","logger":"task"}
{"timestamp":"2025-09-01T19:33:12.797300Z","level":"info","event":"\tPvap 0 \\","chan":"stdout","logger":"task"}
{"timestamp":"2025-09-01T19:33:12.797566Z","level":"info","event":"\tsigmaBulk 0 \\","chan":"stdout","logger":"task"}
{"timestamp":"2025-09-01T19:33:12.797835Z","level":"info","event":"\tRvdw 2.19208 \\","chan":"stdout","logger":"task"}
{"timestamp":"2025-09-01T19:33:12.798078Z","level":"info","event":"\tRes 0 \\","chan":"stdout","logger":"task"}
{"timestamp":"2025-09-01T19:33:12.798316Z","level":"info","event":"\ttauNuc 343133","chan":"stdout","logger":"task"}
{"timestamp":"2025-09-01T19:33:12.798720Z","level":"info","event":"fluid-ex-corr lda-TF lda-PZ","chan":"stdout","logger":"task"}
{"timestamp":"2025-09-01T19:33:12.799066Z","level":"info","event":"fluid-gummel-loop 10 1.000000e-05","chan":"stdout","logger":"task"}
{"timestamp":"2025-09-01T19:33:12.799329Z","level":"info","event":"fluid-minimize  \\","chan":"stdout","logger":"task"}
{"timestamp":"2025-09-01T19:33:12.805561Z","level":"info","event":"\tdirUpdateScheme      PolakRibiere \\","chan":"stdout","logger":"task"}
{"timestamp":"2025-09-01T19:33:12.806042Z","level":"info","event":"\tlinminMethod         DirUpdateRecommended \\","chan":"stdout","logger":"task"}
{"timestamp":"2025-09-01T19:33:12.806406Z","level":"info","event":"\tnIterations          400 \\","chan":"stdout","logger":"task"}
{"timestamp":"2025-09-01T19:33:12.806730Z","level":"info","event":"\thistory              15 \\","chan":"stdout","logger":"task"}
{"timestamp":"2025-09-01T19:33:12.807004Z","level":"info","event":"\tknormThreshold       1e-11 \\","chan":"stdout","logger":"task"}
{"timestamp":"2025-09-01T19:33:12.807292Z","level":"info","event":"\tmaxThreshold         no \\","chan":"stdout","logger":"task"}
{"timestamp":"2025-09-01T19:33:12.807554Z","level":"info","event":"\tenergyDiffThreshold  0 \\","chan":"stdout","logger":"task"}
{"timestamp":"2025-09-01T19:33:12.807848Z","level":"info","event":"\tnEnergyDiff          2 \\","chan":"stdout","logger":"task"}
{"timestamp":"2025-09-01T19:33:12.808144Z","level":"info","event":"\tconvergeAll          no \\","chan":"stdout","logger":"task"}
{"timestamp":"2025-09-01T19:33:12.808372Z","level":"info","event":"\talphaTstart          1 \\","chan":"stdout","logger":"task"}
{"timestamp":"2025-09-01T19:33:12.808557Z","level":"info","event":"\talphaTmin            1e-10 \\","chan":"stdout","logger":"task"}
{"timestamp":"2025-09-01T19:33:12.808769Z","level":"info","event":"\tupdateTestStepSize   yes \\","chan":"stdout","logger":"task"}
{"timestamp":"2025-09-01T19:33:12.809061Z","level":"info","event":"\talphaTreduceFactor   0.1 \\","chan":"stdout","logger":"task"}
{"timestamp":"2025-09-01T19:33:12.809311Z","level":"info","event":"\talphaTincreaseFactor 3 \\","chan":"stdout","logger":"task"}
{"timestamp":"2025-09-01T19:33:12.809562Z","level":"info","event":"\tnAlphaAdjustMax      6 \\","chan":"stdout","logger":"task"}
{"timestamp":"2025-09-01T19:33:12.809914Z","level":"info","event":"\twolfeEnergy          0.0001 \\","chan":"stdout","logger":"task"}
{"timestamp":"2025-09-01T19:33:12.813534Z","level":"info","event":"\twolfeGradient        0.9 \\","chan":"stdout","logger":"task"}
{"timestamp":"2025-09-01T19:33:12.814232Z","level":"info","event":"\tabortOnFailedStep    no \\","chan":"stdout","logger":"task"}
{"timestamp":"2025-09-01T19:33:12.814700Z","level":"info","event":"\tfdTest               no","chan":"stdout","logger":"task"}
{"timestamp":"2025-09-01T19:33:12.815157Z","level":"info","event":"fluid-solvent H2O 55.338 ScalarEOS \\","chan":"stdout","logger":"task"}
{"timestamp":"2025-09-01T19:33:12.815512Z","level":"info","event":"\tepsBulk 78.4 \\","chan":"stdout","logger":"task"}
{"timestamp":"2025-09-01T19:33:12.815856Z","level":"info","event":"\tpMol 0.92466 \\","chan":"stdout","logger":"task"}
{"timestamp":"2025-09-01T19:33:12.816179Z","level":"info","event":"\tepsInf 1.77 \\","chan":"stdout","logger":"task"}
{"timestamp":"2025-09-01T19:33:12.816536Z","level":"info","event":"\tPvap 1.06736e-10 \\","chan":"stdout","logger":"task"}
{"timestamp":"2025-09-01T19:33:12.816865Z","level":"info","event":"\tsigmaBulk 4.62e-05 \\","chan":"stdout","logger":"task"}
{"timestamp":"2025-09-01T19:33:12.817205Z","level":"info","event":"\tRvdw 2.61727 \\","chan":"stdout","logger":"task"}
{"timestamp":"2025-09-01T19:33:12.817538Z","level":"info","event":"\tRes 1.42 \\","chan":"stdout","logger":"task"}
{"timestamp":"2025-09-01T19:33:12.817900Z","level":"info","event":"\ttauNuc 343133 \\","chan":"stdout","logger":"task"}
{"timestamp":"2025-09-01T19:33:12.818273Z","level":"info","event":"\tpoleEl 15 7 1","chan":"stdout","logger":"task"}
{"timestamp":"2025-09-01T19:33:12.818567Z","level":"info","event":"forces-output-coords Positions","chan":"stdout","logger":"task"}
{"timestamp":"2025-09-01T19:33:12.818873Z","level":"info","event":"initial-state $VAR","chan":"stdout","logger":"task"}
{"timestamp":"2025-09-01T19:33:12.819197Z","level":"info","event":"ion V   0.000297000000000   0.000206000000000  40.527760999999998 1","chan":"stdout","logger":"task"}
{"timestamp":"2025-09-01T19:33:12.819466Z","level":"info","event":"ion V  -2.867357999999999   4.115779999999999  33.076448999999997 1","chan":"stdout","logger":"task"}
{"timestamp":"2025-09-01T19:33:12.819729Z","level":"info","event":"ion V   0.000297000000000   0.000206000000000  51.335754999999992 1","chan":"stdout","logger":"task"}
{"timestamp":"2025-09-01T19:33:12.820004Z","level":"info","event":"ion V  -2.867357999999999   4.115779999999999  43.884442999999983 1","chan":"stdout","logger":"task"}
{"timestamp":"2025-09-01T19:33:12.820322Z","level":"info","event":"ion V   2.087893999999999   6.178677999999999  29.394374999999997 1","chan":"stdout","logger":"task"}
{"timestamp":"2025-09-01T19:33:12.820778Z","level":"info","event":"ion V   2.923822000000000   2.052782000000000  35.129578999999993 1","chan":"stdout","logger":"task"}
{"timestamp":"2025-09-01T19:33:12.821082Z","level":"info","event":"ion V   0.000297000000000   0.000206000000000  62.143747999999995 1","chan":"stdout","logger":"task"}
{"timestamp":"2025-09-01T19:33:12.821508Z","level":"info","event":"ion V  -2.867357999999999   4.115779999999999  54.692435999999994 1","chan":"stdout","logger":"task"}
{"timestamp":"2025-09-01T19:33:12.821824Z","level":"info","event":"ion V   2.087893999999999   6.178677999999999  40.202368999999983 1","chan":"stdout","logger":"task"}
{"timestamp":"2025-09-01T19:33:12.822259Z","level":"info","event":"ion V   2.923822000000000   2.052782000000000  45.937573000000000 1","chan":"stdout","logger":"task"}
{"timestamp":"2025-09-01T19:33:12.822523Z","level":"info","event":"ion O  -0.406594999999999   3.963560999999999  29.978448999999998 1","chan":"stdout","logger":"task"}
{"timestamp":"2025-09-01T19:33:12.822838Z","level":"info","event":"ion O  -3.080845999999999   7.974219999999999  22.816246999999997 1","chan":"stdout","logger":"task"}
{"timestamp":"2025-09-01T19:33:12.823208Z","level":"info","event":"ion O   8.092021000000001   0.256846000000000  30.899395999999992 1","chan":"stdout","logger":"task"}
{"timestamp":"2025-09-01T19:33:12.823563Z","level":"info","event":"ion O   5.417259000000000   4.267018999999999  23.737565000000000 1","chan":"stdout","logger":"task"}
{"timestamp":"2025-09-01T19:33:12.823859Z","level":"info","event":"ion O  -0.406594999999999   3.963560999999999  40.786441999999994 1","chan":"stdout","logger":"task"}
{"timestamp":"2025-09-01T19:33:12.824137Z","level":"info","event":"ion O   4.781548000000001   4.427946999999999  29.221173999999994 1","chan":"stdout","logger":"task"}
{"timestamp":"2025-09-01T19:33:12.824432Z","level":"info","event":"ion O   2.336115000000000   7.929795999999998  21.273168999999999 1","chan":"stdout","logger":"task"}
{"timestamp":"2025-09-01T19:33:12.825737Z","level":"info","event":"ion O  -3.080845999999999   7.974219999999999  33.624240999999998 1","chan":"stdout","logger":"task"}
{"timestamp":"2025-09-01T19:33:12.826091Z","level":"info","event":"ion O   8.092021000000001   0.256846000000000  41.707389999999990 1","chan":"stdout","logger":"task"}
{"timestamp":"2025-09-01T19:33:12.826992Z","level":"info","event":"ion O   2.674004000000000   0.301442000000000  43.251495999999996 1","chan":"stdout","logger":"task"}
{"timestamp":"2025-09-01T19:33:12.827291Z","level":"info","event":"ion O   0.229520000000000   3.803208999999999  35.304034999999999 1","chan":"stdout","logger":"task"}
{"timestamp":"2025-09-01T19:33:12.828424Z","level":"info","event":"ion O   5.417259000000000   4.267018999999999  34.545558999999997 1","chan":"stdout","logger":"task"}
{"timestamp":"2025-09-01T19:33:12.828825Z","level":"info","event":"ion O  -0.406594999999999   3.963560999999999  51.594435999999995 1","chan":"stdout","logger":"task"}
{"timestamp":"2025-09-01T19:33:12.829410Z","level":"info","event":"ion O   4.781548000000001   4.427946999999999  40.029167999999999 1","chan":"stdout","logger":"task"}
{"timestamp":"2025-09-01T19:33:12.829783Z","level":"info","event":"ion O   2.336115000000000   7.929795999999998  32.081162999999989 1","chan":"stdout","logger":"task"}
{"timestamp":"2025-09-01T19:33:12.830371Z","level":"info","event":"ion O  -3.080845999999999   7.974219999999999  44.432234000000001 1","chan":"stdout","logger":"task"}
{"timestamp":"2025-09-01T19:33:12.830745Z","level":"info","event":"ion O   8.092021000000001   0.256846000000000  52.515383999999983 1","chan":"stdout","logger":"task"}
{"timestamp":"2025-09-01T19:33:12.831943Z","level":"info","event":"ion O   2.674004000000000   0.301442000000000  54.059489999999990 1","chan":"stdout","logger":"task"}
{"timestamp":"2025-09-01T19:33:12.833251Z","level":"info","event":"ion O   0.229520000000000   3.803208999999999  46.112028999999993 1","chan":"stdout","logger":"task"}
{"timestamp":"2025-09-01T19:33:12.840639Z","level":"info","event":"ion O   5.417259000000000   4.267018999999999  45.353552999999991 1","chan":"stdout","logger":"task"}
{"timestamp":"2025-09-01T19:33:12.841149Z","level":"info","event":"ion-species GBRV/$ID_pbe.uspp","chan":"stdout","logger":"task"}
{"timestamp":"2025-09-01T19:33:12.841872Z","level":"info","event":"ion-width Ecut","chan":"stdout","logger":"task"}
{"timestamp":"2025-09-01T19:33:12.842780Z","level":"info","event":"ionic-minimize  \\","chan":"stdout","logger":"task"}
{"timestamp":"2025-09-01T19:33:12.843122Z","level":"info","event":"\tdirUpdateScheme      L-BFGS \\","chan":"stdout","logger":"task"}
{"timestamp":"2025-09-01T19:33:12.843522Z","level":"info","event":"\tlinminMethod         DirUpdateRecommended \\","chan":"stdout","logger":"task"}
{"timestamp":"2025-09-01T19:33:12.843885Z","level":"info","event":"\tnIterations          0 \\","chan":"stdout","logger":"task"}
{"timestamp":"2025-09-01T19:33:12.844292Z","level":"info","event":"\thistory              15 \\","chan":"stdout","logger":"task"}
{"timestamp":"2025-09-01T19:33:12.844722Z","level":"info","event":"\tknormThreshold       0.0001 \\","chan":"stdout","logger":"task"}
{"timestamp":"2025-09-01T19:33:12.845027Z","level":"info","event":"\tmaxThreshold         no \\","chan":"stdout","logger":"task"}
{"timestamp":"2025-09-01T19:33:12.845356Z","level":"info","event":"\tenergyDiffThreshold  1e-06 \\","chan":"stdout","logger":"task"}
{"timestamp":"2025-09-01T19:33:12.849728Z","level":"info","event":"\tnEnergyDiff          2 \\","chan":"stdout","logger":"task"}
{"timestamp":"2025-09-01T19:33:12.850139Z","level":"info","event":"\tconvergeAll          no \\","chan":"stdout","logger":"task"}
{"timestamp":"2025-09-01T19:33:12.850458Z","level":"info","event":"\talphaTstart          1 \\","chan":"stdout","logger":"task"}
{"timestamp":"2025-09-01T19:33:12.850802Z","level":"info","event":"\talphaTmin            1e-10 \\","chan":"stdout","logger":"task"}
{"timestamp":"2025-09-01T19:33:12.851142Z","level":"info","event":"\tupdateTestStepSize   yes \\","chan":"stdout","logger":"task"}
{"timestamp":"2025-09-01T19:33:12.851560Z","level":"info","event":"\talphaTreduceFactor   0.1 \\","chan":"stdout","logger":"task"}
{"timestamp":"2025-09-01T19:33:12.851935Z","level":"info","event":"\talphaTincreaseFactor 3 \\","chan":"stdout","logger":"task"}
{"timestamp":"2025-09-01T19:33:12.852412Z","level":"info","event":"\tnAlphaAdjustMax      3 \\","chan":"stdout","logger":"task"}
{"timestamp":"2025-09-01T19:33:12.852875Z","level":"info","event":"\twolfeEnergy          0.0001 \\","chan":"stdout","logger":"task"}
{"timestamp":"2025-09-01T19:33:12.853275Z","level":"info","event":"\twolfeGradient        0.9 \\","chan":"stdout","logger":"task"}
{"timestamp":"2025-09-01T19:33:12.853646Z","level":"info","event":"\tabortOnFailedStep    no \\","chan":"stdout","logger":"task"}
{"timestamp":"2025-09-01T19:33:12.853957Z","level":"info","event":"\tfdTest               no","chan":"stdout","logger":"task"}
{"timestamp":"2025-09-01T19:33:12.854309Z","level":"info","event":"kpoint   0.500000000000   0.500000000000   0.500000000000  1.00000000000000","chan":"stdout","logger":"task"}
{"timestamp":"2025-09-01T19:33:12.854735Z","level":"info","event":"kpoint-folding 1 1 1","chan":"stdout","logger":"task"}
{"timestamp":"2025-09-01T19:33:12.854987Z","level":"info","event":"latt-move-scale 1 1 1","chan":"stdout","logger":"task"}
{"timestamp":"2025-09-01T19:33:12.855231Z","level":"info","event":"latt-scale 1 1 1","chan":"stdout","logger":"task"}
{"timestamp":"2025-09-01T19:33:12.855618Z","level":"info","event":"lattice  \\","chan":"stdout","logger":"task"}
{"timestamp":"2025-09-01T19:33:12.861634Z","level":"info","event":"\t  10.749050000000000   -5.737742000000000    0.000000000000000  \\","chan":"stdout","logger":"task"}
{"timestamp":"2025-09-01T19:33:12.862091Z","level":"info","event":"\t   0.000000000000000    8.231180999999999    0.000000000000000  \\","chan":"stdout","logger":"task"}
{"timestamp":"2025-09-01T19:33:12.862443Z","level":"info","event":"\t -12.434680000000000  -14.908436999999999   97.271944000000005","chan":"stdout","logger":"task"}
{"timestamp":"2025-09-01T19:33:12.862771Z","level":"info","event":"lattice-minimize  \\","chan":"stdout","logger":"task"}
{"timestamp":"2025-09-01T19:33:12.863116Z","level":"info","event":"\tdirUpdateScheme      L-BFGS \\","chan":"stdout","logger":"task"}
{"timestamp":"2025-09-01T19:33:12.863472Z","level":"info","event":"\tlinminMethod         DirUpdateRecommended \\","chan":"stdout","logger":"task"}
{"timestamp":"2025-09-01T19:33:12.863797Z","level":"info","event":"\tnIterations          0 \\","chan":"stdout","logger":"task"}
{"timestamp":"2025-09-01T19:33:12.864114Z","level":"info","event":"\thistory              15 \\","chan":"stdout","logger":"task"}
{"timestamp":"2025-09-01T19:33:12.864402Z","level":"info","event":"\tknormThreshold       0 \\","chan":"stdout","logger":"task"}
{"timestamp":"2025-09-01T19:33:12.864673Z","level":"info","event":"\tmaxThreshold         no \\","chan":"stdout","logger":"task"}
{"timestamp":"2025-09-01T19:33:12.864993Z","level":"info","event":"\tenergyDiffThreshold  1e-06 \\","chan":"stdout","logger":"task"}
{"timestamp":"2025-09-01T19:33:12.865386Z","level":"info","event":"\tnEnergyDiff          2 \\","chan":"stdout","logger":"task"}
{"timestamp":"2025-09-01T19:33:12.865695Z","level":"info","event":"\tconvergeAll          no \\","chan":"stdout","logger":"task"}
{"timestamp":"2025-09-01T19:33:12.866000Z","level":"info","event":"\talphaTstart          1 \\","chan":"stdout","logger":"task"}
{"timestamp":"2025-09-01T19:33:12.866279Z","level":"info","event":"\talphaTmin            1e-10 \\","chan":"stdout","logger":"task"}
{"timestamp":"2025-09-01T19:33:12.866589Z","level":"info","event":"\tupdateTestStepSize   yes \\","chan":"stdout","logger":"task"}
{"timestamp":"2025-09-01T19:33:12.873545Z","level":"info","event":"\talphaTreduceFactor   0.1 \\","chan":"stdout","logger":"task"}
{"timestamp":"2025-09-01T19:33:12.874269Z","level":"info","event":"\talphaTincreaseFactor 3 \\","chan":"stdout","logger":"task"}
{"timestamp":"2025-09-01T19:33:12.874619Z","level":"info","event":"\tnAlphaAdjustMax      3 \\","chan":"stdout","logger":"task"}
{"timestamp":"2025-09-01T19:33:12.874963Z","level":"info","event":"\twolfeEnergy          0.0001 \\","chan":"stdout","logger":"task"}
{"timestamp":"2025-09-01T19:33:12.875357Z","level":"info","event":"\twolfeGradient        0.9 \\","chan":"stdout","logger":"task"}
{"timestamp":"2025-09-01T19:33:12.875721Z","level":"info","event":"\tabortOnFailedStep    no \\","chan":"stdout","logger":"task"}
{"timestamp":"2025-09-01T19:33:12.876030Z","level":"info","event":"\tfdTest               no","chan":"stdout","logger":"task"}
{"timestamp":"2025-09-01T19:33:12.876409Z","level":"info","event":"lcao-params 15 5e-05 0.00734","chan":"stdout","logger":"task"}
{"timestamp":"2025-09-01T19:33:12.876765Z","level":"info","event":"pcm-variant CANDLE","chan":"stdout","logger":"task"}
{"timestamp":"2025-09-01T19:33:12.877152Z","level":"info","event":"perturb-minimize  \\","chan":"stdout","logger":"task"}
{"timestamp":"2025-09-01T19:33:12.881530Z","level":"info","event":"\tnIterations            0 \\","chan":"stdout","logger":"task"}
{"timestamp":"2025-09-01T19:33:12.881993Z","level":"info","event":"\talgorithm              MINRES \\","chan":"stdout","logger":"task"}
{"timestamp":"2025-09-01T19:33:12.882337Z","level":"info","event":"\tresidualTol            0.0001 \\","chan":"stdout","logger":"task"}
{"timestamp":"2025-09-01T19:33:12.882688Z","level":"info","event":"\tresidualDiffThreshold  0.0001 \\","chan":"stdout","logger":"task"}
{"timestamp":"2025-09-01T19:33:12.883205Z","level":"info","event":"\tCGBypass               no \\","chan":"stdout","logger":"task"}
{"timestamp":"2025-09-01T19:33:12.883595Z","level":"info","event":"\trecomputeResidual      no","chan":"stdout","logger":"task"}
{"timestamp":"2025-09-01T19:33:12.884079Z","level":"info","event":"spintype no-spin","chan":"stdout","logger":"task"}
{"timestamp":"2025-09-01T19:33:12.884409Z","level":"info","event":"subspace-rotation-factor 1 yes","chan":"stdout","logger":"task"}
{"timestamp":"2025-09-01T19:33:12.884725Z","level":"info","event":"symmetries automatic","chan":"stdout","logger":"task"}
{"timestamp":"2025-09-01T19:33:12.885042Z","level":"info","event":"symmetry-threshold 0.0001","chan":"stdout","logger":"task"}
{"timestamp":"2025-09-01T19:33:12.885375Z","level":"info","event":"","chan":"stdout","logger":"task"}
{"timestamp":"2025-09-01T19:33:12.885722Z","level":"info","event":"","chan":"stdout","logger":"task"}
{"timestamp":"2025-09-01T19:33:12.886038Z","level":"info","event":"","chan":"stdout","logger":"task"}
{"timestamp":"2025-09-01T19:33:12.886306Z","level":"info","event":"---------- Setting up symmetries ----------","chan":"stdout","logger":"task"}
{"timestamp":"2025-09-01T19:33:12.886554Z","level":"info","event":"","chan":"stdout","logger":"task"}
{"timestamp":"2025-09-01T19:33:12.886853Z","level":"info","event":"Non-trivial transmission matrix:","chan":"stdout","logger":"task"}
{"timestamp":"2025-09-01T19:33:12.887177Z","level":"info","event":"[   1   0   3  ]","chan":"stdout","logger":"task"}
{"timestamp":"2025-09-01T19:33:12.887421Z","level":"info","event":"[   0   1   3  ]","chan":"stdout","logger":"task"}
{"timestamp":"2025-09-01T19:33:12.887666Z","level":"info","event":"[   0   0   1  ]","chan":"stdout","logger":"task"}
{"timestamp":"2025-09-01T19:33:12.887887Z","level":"info","event":"with reduced lattice vectors:","chan":"stdout","logger":"task"}
{"timestamp":"2025-09-01T19:33:12.888118Z","level":"info","event":"[     10.749050     -5.737742     15.033924  ]","chan":"stdout","logger":"task"}
{"timestamp":"2025-09-01T19:33:12.888393Z","level":"info","event":"[      0.000000      8.231181     24.693543  ]","chan":"stdout","logger":"task"}
{"timestamp":"2025-09-01T19:33:12.893598Z","level":"info","event":"[    -12.434680    -14.908437     15.242593  ]","chan":"stdout","logger":"task"}
{"timestamp":"2025-09-01T19:33:12.894045Z","level":"info","event":"","chan":"stdout","logger":"task"}
{"timestamp":"2025-09-01T19:33:12.894389Z","level":"info","event":"Found 2 point-group symmetries of the bravais lattice","chan":"stdout","logger":"task"}
{"timestamp":"2025-09-01T19:33:12.894692Z","level":"info","event":"Found 1 space-group symmetries with basis","chan":"stdout","logger":"task"}
{"timestamp":"2025-09-01T19:33:12.895051Z","level":"info","event":"Applied RMS atom displacement 0 bohrs to make symmetries exact.","chan":"stdout","logger":"task"}
{"timestamp":"2025-09-01T19:33:13.235894Z","level":"info","event":"","chan":"stdout","logger":"task"}
{"timestamp":"2025-09-01T19:33:13.238038Z","level":"info","event":"---------- Initializing the Grid ----------","chan":"stdout","logger":"task"}
{"timestamp":"2025-09-01T19:33:13.238486Z","level":"info","event":"R =","chan":"stdout","logger":"task"}
{"timestamp":"2025-09-01T19:33:13.238905Z","level":"info","event":"[      10.7491     -5.73774            0  ]","chan":"stdout","logger":"task"}
{"timestamp":"2025-09-01T19:33:13.239286Z","level":"info","event":"[            0      8.23118            0  ]","chan":"stdout","logger":"task"}
{"timestamp":"2025-09-01T19:33:13.239638Z","level":"info","event":"[     -12.4347     -14.9084      97.2719  ]","chan":"stdout","logger":"task"}
{"timestamp":"2025-09-01T19:33:13.239931Z","level":"info","event":"unit cell volume = 8606.37","chan":"stdout","logger":"task"}
{"timestamp":"2025-09-01T19:33:13.240292Z","level":"info","event":"G =","chan":"stdout","logger":"task"}
{"timestamp":"2025-09-01T19:33:13.240711Z","level":"info","event":"[   0.584534   0.407463         -0  ]","chan":"stdout","logger":"task"}
{"timestamp":"2025-09-01T19:33:13.241098Z","level":"info","event":"[         -0   0.763339          0  ]","chan":"stdout","logger":"task"}
{"timestamp":"2025-09-01T19:33:13.241396Z","level":"info","event":"[  0.0747234   0.169081   0.064594  ]","chan":"stdout","logger":"task"}
{"timestamp":"2025-09-01T19:33:13.241712Z","level":"info","event":"Minimum fftbox size, Smin = [  48  52  280  ]","chan":"stdout","logger":"task"}
{"timestamp":"2025-09-01T19:33:13.242078Z","level":"info","event":"Chosen fftbox size, S = [  48  54  280  ]","chan":"stdout","logger":"task"}
{"timestamp":"2025-09-01T19:33:13.243315Z","level":"info","event":"","chan":"stdout","logger":"task"}
{"timestamp":"2025-09-01T19:33:13.243730Z","level":"info","event":"---------- Exchange Correlation functional ----------","chan":"stdout","logger":"task"}
{"timestamp":"2025-09-01T19:33:13.244092Z","level":"info","event":"Initalized PBE GGA exchange.","chan":"stdout","logger":"task"}
{"timestamp":"2025-09-01T19:33:13.245924Z","level":"info","event":"Initalized PBE GGA correlation.","chan":"stdout","logger":"task"}
{"timestamp":"2025-09-01T19:33:13.246293Z","level":"info","event":"","chan":"stdout","logger":"task"}
{"timestamp":"2025-09-01T19:33:13.246887Z","level":"info","event":"---------- Setting up pseudopotentials ----------","chan":"stdout","logger":"task"}
{"timestamp":"2025-09-01T19:33:13.247320Z","level":"info","event":"Width of ionic core gaussian charges (only for fluid interactions / plotting) set to 0.561985","chan":"stdout","logger":"task"}
{"timestamp":"2025-09-01T19:33:13.247754Z","level":"info","event":"","chan":"stdout","logger":"task"}
{"timestamp":"2025-09-01T19:33:13.248197Z","level":"info","event":"Reading pseudopotential file '/opt/jdftx-master/build/pseudopotentials/GBRV/v_pbe.uspp':","chan":"stdout","logger":"task"}
{"timestamp":"2025-09-01T19:33:13.249274Z","level":"info","event":"  Title: V.  Created by USPP 7.3.6 on 31-3-15","chan":"stdout","logger":"task"}
{"timestamp":"2025-09-01T19:33:13.249580Z","level":"info","event":"  Reference state energy: -72.228583.  13 valence electrons in orbitals:","chan":"stdout","logger":"task"}
{"timestamp":"2025-09-01T19:33:13.249871Z","level":"info","event":"    |300>  occupation: 2  eigenvalue: -2.581040","chan":"stdout","logger":"task"}
{"timestamp":"2025-09-01T19:33:13.250234Z","level":"info","event":"    |310>  occupation: 6  eigenvalue: -1.618497","chan":"stdout","logger":"task"}
{"timestamp":"2025-09-01T19:33:13.252098Z","level":"info","event":"    |400>  occupation: 2  eigenvalue: -0.172800","chan":"stdout","logger":"task"}
{"timestamp":"2025-09-01T19:33:13.252443Z","level":"info","event":"    |320>  occupation: 3  eigenvalue: -0.189802","chan":"stdout","logger":"task"}
{"timestamp":"2025-09-01T19:33:13.252697Z","level":"info","event":"  lMax: 2  lLocal: 3  QijEcut: 6","chan":"stdout","logger":"task"}
{"timestamp":"2025-09-01T19:33:13.252977Z","level":"info","event":"  6 projectors sampled on a log grid with 593 points:","chan":"stdout","logger":"task"}
{"timestamp":"2025-09-01T19:33:13.253241Z","level":"info","event":"    l: 0  eig: -2.581041  rCut: 1.5","chan":"stdout","logger":"task"}
{"timestamp":"2025-09-01T19:33:13.253593Z","level":"info","event":"    l: 0  eig: -0.172801  rCut: 1.5","chan":"stdout","logger":"task"}
{"timestamp":"2025-09-01T19:33:13.253919Z","level":"info","event":"    l: 1  eig: -1.618497  rCut: 1.6","chan":"stdout","logger":"task"}
{"timestamp":"2025-09-01T19:33:13.254245Z","level":"info","event":"    l: 1  eig: 0.150000  rCut: 1.6","chan":"stdout","logger":"task"}
{"timestamp":"2025-09-01T19:33:13.257556Z","level":"info","event":"    l: 2  eig: -0.189802  rCut: 1.7","chan":"stdout","logger":"task"}
{"timestamp":"2025-09-01T19:33:13.257969Z","level":"info","event":"    l: 2  eig: 0.150000  rCut: 1.7","chan":"stdout","logger":"task"}
{"timestamp":"2025-09-01T19:33:13.258321Z","level":"info","event":"  Partial core density with radius 0.8","chan":"stdout","logger":"task"}
{"timestamp":"2025-09-01T19:33:13.258998Z","level":"info","event":"  Transforming core density to a uniform radial grid of dG=0.02 with 3007 points.","chan":"stdout","logger":"task"}
{"timestamp":"2025-09-01T19:33:13.259620Z","level":"info","event":"  Transforming local potential to a uniform radial grid of dG=0.02 with 3007 points.","chan":"stdout","logger":"task"}
{"timestamp":"2025-09-01T19:33:13.260055Z","level":"info","event":"  Transforming nonlocal projectors to a uniform radial grid of dG=0.02 with 307 points.","chan":"stdout","logger":"task"}
{"timestamp":"2025-09-01T19:33:13.260476Z","level":"info","event":"  Transforming density augmentations to a uniform radial grid of dG=0.02 with 3007 points.","chan":"stdout","logger":"task"}
{"timestamp":"2025-09-01T19:33:13.260826Z","level":"info","event":"  Transforming atomic orbitals to a uniform radial grid of dG=0.02 with 307 points.","chan":"stdout","logger":"task"}
{"timestamp":"2025-09-01T19:33:13.514795Z","level":"info","event":"  Core radius for overlap checks: 1.80 bohrs.","chan":"stdout","logger":"task"}
{"timestamp":"2025-09-01T19:33:13.516161Z","level":"info","event":"","chan":"stdout","logger":"task"}
{"timestamp":"2025-09-01T19:33:13.516471Z","level":"info","event":"Reading pseudopotential file '/opt/jdftx-master/build/pseudopotentials/GBRV/o_pbe.uspp':","chan":"stdout","logger":"task"}
{"timestamp":"2025-09-01T19:33:13.517924Z","level":"info","event":"  Title: O.  Created by USPP 7.3.6 on 3-2-2014","chan":"stdout","logger":"task"}
{"timestamp":"2025-09-01T19:33:13.518213Z","level":"info","event":"  Reference state energy: -15.894388.  6 valence electrons in orbitals:","chan":"stdout","logger":"task"}
{"timestamp":"2025-09-01T19:33:13.519243Z","level":"info","event":"    |200>  occupation: 2  eigenvalue: -0.878823","chan":"stdout","logger":"task"}
{"timestamp":"2025-09-01T19:33:13.519529Z","level":"info","event":"    |210>  occupation: 4  eigenvalue: -0.332131","chan":"stdout","logger":"task"}
{"timestamp":"2025-09-01T19:33:13.519843Z","level":"info","event":"  lMax: 2  lLocal: 2  QijEcut: 6","chan":"stdout","logger":"task"}
{"timestamp":"2025-09-01T19:33:13.520124Z","level":"info","event":"  5 projectors sampled on a log grid with 511 points:","chan":"stdout","logger":"task"}
{"timestamp":"2025-09-01T19:33:13.520521Z","level":"info","event":"    l: 0  eig: -0.878823  rCut: 1.25","chan":"stdout","logger":"task"}
{"timestamp":"2025-09-01T19:33:13.522735Z","level":"info","event":"    l: 0  eig: 0.000000  rCut: 1.25","chan":"stdout","logger":"task"}
{"timestamp":"2025-09-01T19:33:13.523181Z","level":"info","event":"    l: 1  eig: -0.332132  rCut: 1.25","chan":"stdout","logger":"task"}
{"timestamp":"2025-09-01T19:33:13.523509Z","level":"info","event":"    l: 1  eig: 0.000000  rCut: 1.25","chan":"stdout","logger":"task"}
{"timestamp":"2025-09-01T19:33:13.523828Z","level":"info","event":"    l: 2  eig: 1.000000  rCut: 1.25","chan":"stdout","logger":"task"}
{"timestamp":"2025-09-01T19:33:13.524142Z","level":"info","event":"  Partial core density with radius 0.7","chan":"stdout","logger":"task"}
{"timestamp":"2025-09-01T19:33:13.524405Z","level":"info","event":"  Transforming core density to a uniform radial grid of dG=0.02 with 3007 points.","chan":"stdout","logger":"task"}
{"timestamp":"2025-09-01T19:33:13.524674Z","level":"info","event":"  Transforming local potential to a uniform radial grid of dG=0.02 with 3007 points.","chan":"stdout","logger":"task"}
{"timestamp":"2025-09-01T19:33:13.524928Z","level":"info","event":"  Transforming nonlocal projectors to a uniform radial grid of dG=0.02 with 307 points.","chan":"stdout","logger":"task"}
{"timestamp":"2025-09-01T19:33:13.525163Z","level":"info","event":"  Transforming density augmentations to a uniform radial grid of dG=0.02 with 3007 points.","chan":"stdout","logger":"task"}
{"timestamp":"2025-09-01T19:33:13.525568Z","level":"info","event":"  Transforming atomic orbitals to a uniform radial grid of dG=0.02 with 307 points.","chan":"stdout","logger":"task"}
{"timestamp":"2025-09-01T19:33:13.537952Z","level":"info","event":"  Core radius for overlap checks: 1.25 bohrs.","chan":"stdout","logger":"task"}
{"timestamp":"2025-09-01T19:33:13.538331Z","level":"info","event":"","chan":"stdout","logger":"task"}
{"timestamp":"2025-09-01T19:33:13.538608Z","level":"info","event":"Initialized 2 species with 30 total atoms.","chan":"stdout","logger":"task"}
{"timestamp":"2025-09-01T19:33:13.538846Z","level":"info","event":"","chan":"stdout","logger":"task"}
{"timestamp":"2025-09-01T19:33:13.539178Z","level":"info","event":"Folded 1 k-points by 1x1x1 to 1 k-points.","chan":"stdout","logger":"task"}
{"timestamp":"2025-09-01T19:33:13.539496Z","level":"info","event":"","chan":"stdout","logger":"task"}
{"timestamp":"2025-09-01T19:33:13.539779Z","level":"info","event":"---------- Setting up k-points, bands, fillings ----------","chan":"stdout","logger":"task"}
{"timestamp":"2025-09-01T19:33:13.540004Z","level":"info","event":"No reducable k-points.","chan":"stdout","logger":"task"}
{"timestamp":"2025-09-01T19:33:13.540263Z","level":"info","event":"Computing the number of bands and number of electrons","chan":"stdout","logger":"task"}
{"timestamp":"2025-09-01T19:33:13.540598Z","level":"info","event":"Calculating initial fillings.","chan":"stdout","logger":"task"}
{"timestamp":"2025-09-01T19:33:13.540961Z","level":"info","event":"nElectrons: 249.900000   nBands: 180   nStates: 1","chan":"stdout","logger":"task"}
{"timestamp":"2025-09-01T19:33:13.541566Z","level":"info","event":"","chan":"stdout","logger":"task"}
{"timestamp":"2025-09-01T19:33:13.541946Z","level":"info","event":"----- Setting up reduced wavefunction bases (one per k-point) -----","chan":"stdout","logger":"task"}
{"timestamp":"2025-09-01T19:33:13.542384Z","level":"info","event":"average nbasis = 13004.000 , ideal nbasis = 12999.116","chan":"stdout","logger":"task"}
{"timestamp":"2025-09-01T19:33:19.934680Z","level":"info","event":"","chan":"stdout","logger":"task"}
{"timestamp":"2025-09-01T19:33:19.935138Z","level":"info","event":"Initializing DFT-D2 calculator for fluid / solvation:","chan":"stdout","logger":"task"}
{"timestamp":"2025-09-01T19:33:19.935441Z","level":"info","event":"\t V:  C6:  187.33 Eh-a0^6  R0: 2.952 a0","chan":"stdout","logger":"task"}
{"timestamp":"2025-09-01T19:33:19.935755Z","level":"info","event":"\t O:  C6:   12.14 Eh-a0^6  R0: 2.536 a0","chan":"stdout","logger":"task"}
{"timestamp":"2025-09-01T19:33:19.936640Z","level":"info","event":"","chan":"stdout","logger":"task"}
{"timestamp":"2025-09-01T19:33:19.936992Z","level":"info","event":"---------- Setting up ewald sum ----------","chan":"stdout","logger":"task"}
{"timestamp":"2025-09-01T19:33:19.937821Z","level":"info","event":"Optimum gaussian width for ewald sums = 4.560127 bohr.","chan":"stdout","logger":"task"}
{"timestamp":"2025-09-01T19:33:19.938297Z","level":"info","event":"Real space sum over 1365 unit cells with max indices [  6  7  3  ]","chan":"stdout","logger":"task"}
{"timestamp":"2025-09-01T19:33:19.938647Z","level":"info","event":"Reciprocal space sum over 15525 terms with max indices [  7  7  34  ]","chan":"stdout","logger":"task"}
{"timestamp":"2025-09-01T19:33:19.939114Z","level":"info","event":"","chan":"stdout","logger":"task"}
{"timestamp":"2025-09-01T19:33:19.939503Z","level":"info","event":"---------- Allocating electronic variables ----------","chan":"stdout","logger":"task"}
{"timestamp":"2025-09-01T19:34:18.718559Z","level":"info","event":"Initializing wave functions:  linear combination of atomic orbitals","chan":"stdout","logger":"task"}
{"timestamp":"2025-09-01T19:34:18.719176Z","level":"info","event":"V pseudo-atom occupations:   s ( 2 0 )  p ( 6 )  d ( 5 )","chan":"stdout","logger":"task"}
{"timestamp":"2025-09-01T19:34:18.719911Z","level":"info","event":"O pseudo-atom occupations:   s ( 2 )  p ( 4 )","chan":"stdout","logger":"task"}
{"timestamp":"2025-09-01T19:34:18.720415Z","level":"info","event":"\tFillingsUpdate:  mu: +1.495508988  nElectrons: 249.900000","chan":"stdout","logger":"task"}
{"timestamp":"2025-09-01T19:34:18.720965Z","level":"info","event":"LCAOMinimize: Iter:   0  F: -896.0477574983602835  |grad|_K:  9.980e-02  alpha:  1.000e+00","chan":"stdout","logger":"task"}
{"timestamp":"2025-09-01T19:34:47.477226Z","level":"info","event":"\tFillingsUpdate:  mu: +0.086566812  nElectrons: 249.900000","chan":"stdout","logger":"task"}
{"timestamp":"2025-09-01T19:34:47.477658Z","level":"info","event":"LCAOMinimize: Iter:   1  F: -998.7187542585181745  |grad|_K:  1.449e-01  alpha:  4.854e-01  linmin: -2.961e-02  cgtest: -6.274e-01  t[s]:     94.71","chan":"stdout","logger":"task"}
{"timestamp":"2025-09-01T19:35:16.957862Z","level":"info","event":"LCAOMinimize: \tStep increased F by 5.290706e+01, reducing alpha to 1.910915e-02.","chan":"stdout","logger":"task"}
{"timestamp":"2025-09-01T19:35:39.480903Z","level":"info","event":"\tFillingsUpdate:  mu: +0.088275997  nElectrons: 249.900000","chan":"stdout","logger":"task"}
{"timestamp":"2025-09-01T19:35:39.481395Z","level":"info","event":"LCAOMinimize: Iter:   2  F: -1006.4045774287131962  |grad|_K:  2.796e-02  alpha:  1.911e-02  linmin: -7.501e-03  cgtest:  1.046e+00  t[s]:    146.72","chan":"stdout","logger":"task"}
{"timestamp":"2025-09-01T19:35:39.481794Z","level":"info","event":"LCAOMinimize: Encountered beta<0, resetting CG.","chan":"stdout","logger":"task"}
{"timestamp":"2025-09-01T19:35:46.892048Z","level":"info","event":"LCAOMinimize: \tWrong curvature in test step, increasing alphaT to 5.732744e-02.","chan":"stdout","logger":"task"}
{"timestamp":"2025-09-01T19:36:09.367039Z","level":"info","event":"\tFillingsUpdate:  mu: +0.081794995  nElectrons: 249.900000","chan":"stdout","logger":"task"}
{"timestamp":"2025-09-01T19:36:09.367559Z","level":"info","event":"LCAOMinimize: Iter:   3  F: -1006.9034668311617224  |grad|_K:  2.673e-02  alpha: -4.981e-01  linmin: -6.503e-02  cgtest:  9.353e-01  t[s]:    176.60","chan":"stdout","logger":"task"}
{"timestamp":"2025-09-01T19:36:40.461298Z","level":"info","event":"\tFillingsUpdate:  mu: +0.024573607  nElectrons: 249.900000","chan":"stdout","logger":"task"}
{"timestamp":"2025-09-01T19:36:40.461894Z","level":"info","event":"LCAOMinimize: Iter:   4  F: -1008.2004351743399866  |grad|_K:  2.327e-02  alpha:  6.007e-02  linmin: -1.148e-01  cgtest:  7.553e-01  t[s]:    207.70","chan":"stdout","logger":"task"}
{"timestamp":"2025-09-01T19:36:47.598249Z","level":"info","event":"LCAOMinimize: \tWrong curvature in test step, increasing alphaT to 1.802066e-01.","chan":"stdout","logger":"task"}
{"timestamp":"2025-09-01T19:37:09.244681Z","level":"info","event":"\tFillingsUpdate:  mu: +0.000841387  nElectrons: 249.900000","chan":"stdout","logger":"task"}
{"timestamp":"2025-09-01T19:37:09.245054Z","level":"info","event":"LCAOMinimize: Iter:   5  F: -1009.4950518664669517  |grad|_K:  2.461e-02  alpha: -3.089e-01  linmin: -1.384e-01  cgtest:  8.580e-01  t[s]:    236.48","chan":"stdout","logger":"task"}
{"timestamp":"2025-09-01T19:37:38.593712Z","level":"info","event":"\tFillingsUpdate:  mu: -0.032947341  nElectrons: 249.900000","chan":"stdout","logger":"task"}
{"timestamp":"2025-09-01T19:37:38.596727Z","level":"info","event":"LCAOMinimize: Iter:   6  F: -1011.4453469130103258  |grad|_K:  2.837e-02  alpha:  6.455e-02  linmin: -1.569e-01  cgtest:  7.586e-01  t[s]:    265.83","chan":"stdout","logger":"task"}
{"timestamp":"2025-09-01T19:37:45.555579Z","level":"info","event":"LCAOMinimize: \tWrong curvature in test step, increasing alphaT to 1.936358e-01.","chan":"stdout","logger":"task"}
{"timestamp":"2025-09-01T19:38:08.537429Z","level":"info","event":"\tFillingsUpdate:  mu: -0.013105395  nElectrons: 249.900000","chan":"stdout","logger":"task"}
{"timestamp":"2025-09-01T19:38:08.537856Z","level":"info","event":"LCAOMinimize: Iter:   7  F: -1015.9307170994624130  |grad|_K:  4.303e-02  alpha: -5.389e-02  linmin: -1.191e-01  cgtest:  5.007e-01  t[s]:    295.77","chan":"stdout","logger":"task"}
{"timestamp":"2025-09-01T19:38:38.344320Z","level":"info","event":"LCAOMinimize: \tStep increased F by 1.484717e+02, reducing alpha to 2.373799e-02.","chan":"stdout","logger":"task"}
{"timestamp":"2025-09-01T19:39:02.423311Z","level":"info","event":"\tFillingsUpdate:  mu: -0.064708643  nElectrons: 249.900000","chan":"stdout","logger":"task"}
{"timestamp":"2025-09-01T19:39:02.425198Z","level":"info","event":"LCAOMinimize: Iter:   8  F: -1022.5185485029320489  |grad|_K:  6.073e-02  alpha:  2.374e-02  linmin: -2.853e-02  cgtest:  4.272e-01  t[s]:    349.66","chan":"stdout","logger":"task"}
{"timestamp":"2025-09-01T19:39:33.553710Z","level":"info","event":"\tFillingsUpdate:  mu: -0.143961711  nElectrons: 249.900000","chan":"stdout","logger":"task"}
{"timestamp":"2025-09-01T19:39:33.554305Z","level":"info","event":"LCAOMinimize: Iter:   9  F: -1023.9811427424000385  |grad|_K:  8.418e-02  alpha:  1.679e-02  linmin: -1.681e-02  cgtest:  7.394e-01  t[s]:    380.79","chan":"stdout","logger":"task"}
{"timestamp":"2025-09-01T19:40:04.653587Z","level":"info","event":"\tFillingsUpdate:  mu: -0.158524626  nElectrons: 249.900000","chan":"stdout","logger":"task"}
{"timestamp":"2025-09-01T19:40:04.654156Z","level":"info","event":"LCAOMinimize: Iter:  10  F: -1025.3713425403493602  |grad|_K:  7.694e-02  alpha:  5.273e-03  linmin: -3.647e-02  cgtest:  8.579e-01  t[s]:    411.89","chan":"stdout","logger":"task"}
{"timestamp":"2025-09-01T19:40:13.057800Z","level":"info","event":"LCAOMinimize: \tWrong curvature in test step, increasing alphaT to 1.581875e-02.","chan":"stdout","logger":"task"}
{"timestamp":"2025-09-01T19:40:35.853962Z","level":"info","event":"\tFillingsUpdate:  mu: -0.143552040  nElectrons: 249.900000","chan":"stdout","logger":"task"}
{"timestamp":"2025-09-01T19:40:35.854644Z","level":"info","event":"LCAOMinimize: Iter:  11  F: -1026.4673803979787863  |grad|_K:  7.109e-02  alpha: -1.161e-01  linmin: -2.654e-01  cgtest:  8.847e-01  t[s]:    443.09","chan":"stdout","logger":"task"}
{"timestamp":"2025-09-01T19:41:04.530177Z","level":"info","event":"LCAOMinimize: \tStep increased F by 4.899933e+01, reducing alpha to 2.661108e-02.","chan":"stdout","logger":"task"}
{"timestamp":"2025-09-01T19:41:26.360227Z","level":"info","event":"\tFillingsUpdate:  mu: -0.128360787  nElectrons: 249.900000","chan":"stdout","logger":"task"}
{"timestamp":"2025-09-01T19:41:26.360796Z","level":"info","event":"LCAOMinimize: Iter:  12  F: -1028.5063048471120055  |grad|_K:  6.401e-02  alpha:  2.661e-02  linmin:  9.717e-02  cgtest: -2.590e-01  t[s]:    493.60","chan":"stdout","logger":"task"}
{"timestamp":"2025-09-01T19:41:55.056810Z","level":"info","event":"LCAOMinimize: \tStep increased F by 5.443224e-01, reducing alpha to 4.853274e-03.","chan":"stdout","logger":"task"}
{"timestamp":"2025-09-01T19:42:16.888924Z","level":"info","event":"\tFillingsUpdate:  mu: -0.149615073  nElectrons: 249.900000","chan":"stdout","logger":"task"}
{"timestamp":"2025-09-01T19:42:16.889313Z","level":"info","event":"LCAOMinimize: Iter:  13  F: -1028.8449646484200457  |grad|_K:  6.617e-02  alpha:  4.853e-03  linmin: -6.674e-02  cgtest:  9.883e-01  t[s]:    544.13","chan":"stdout","logger":"task"}
{"timestamp":"2025-09-01T19:42:24.330315Z","level":"info","event":"LCAOMinimize: \tPredicted alpha/alphaT>3.000000, increasing alphaT to 1.455982e-02.","chan":"stdout","logger":"task"}
{"timestamp":"2025-09-01T19:42:54.375996Z","level":"info","event":"\tFillingsUpdate:  mu: -0.106682448  nElectrons: 249.900000","chan":"stdout","logger":"task"}
{"timestamp":"2025-09-01T19:42:54.376561Z","level":"info","event":"LCAOMinimize: Iter:  14  F: -1030.4113541077329046  |grad|_K:  3.436e-02  alpha:  2.147e-02  linmin: -2.381e-02  cgtest: -1.639e-01  t[s]:    581.61","chan":"stdout","logger":"task"}
{"timestamp":"2025-09-01T19:43:01.593567Z","level":"info","event":"LCAOMinimize: \tPredicted alpha/alphaT>3.000000, increasing alphaT to 6.442344e-02.","chan":"stdout","logger":"task"}
{"timestamp":"2025-09-01T19:43:30.487022Z","level":"info","event":"\tFillingsUpdate:  mu: -0.051024310  nElectrons: 249.900000","chan":"stdout","logger":"task"}
{"timestamp":"2025-09-01T19:43:30.487636Z","level":"info","event":"LCAOMinimize: Iter:  15  F: -1032.0782178998440486  |grad|_K:  4.889e-02  alpha:  8.294e-02  linmin:  1.623e-02  cgtest: -1.997e-01  t[s]:    617.72","chan":"stdout","logger":"task"}
{"timestamp":"2025-09-01T19:43:33.313343Z","level":"info","event":"LCAOMinimize: None of the convergence criteria satisfied after 15 iterations.","chan":"stdout","logger":"task"}
{"timestamp":"2025-09-01T19:43:33.313700Z","level":"info","event":"----- createFluidSolver() ----- (Fluid-side solver setup)","chan":"stdout","logger":"task"}
{"timestamp":"2025-09-01T19:43:33.314066Z","level":"info","event":"   Initializing fluid molecule 'H2O'","chan":"stdout","logger":"task"}
{"timestamp":"2025-09-01T19:43:33.314443Z","level":"info","event":"     Initializing site 'O'","chan":"stdout","logger":"task"}
{"timestamp":"2025-09-01T19:43:33.315031Z","level":"info","event":"       Electron density: proportional to exp(-r/0.36935)*erfc((r-0.51523)/0.36823) with norm 6.826","chan":"stdout","logger":"task"}
{"timestamp":"2025-09-01T19:43:33.315397Z","level":"info","event":"       Charge density: gaussian nuclear width 0.478731 with net site charge 0.826","chan":"stdout","logger":"task"}
{"timestamp":"2025-09-01T19:43:33.315775Z","level":"info","event":"       Polarizability: cuspless exponential with width 0.32 and norm 3.73","chan":"stdout","logger":"task"}
{"timestamp":"2025-09-01T19:43:33.316043Z","level":"info","event":"       Hard sphere radius: 2.57003 bohrs","chan":"stdout","logger":"task"}
{"timestamp":"2025-09-01T19:43:33.316421Z","level":"info","event":"       Positions in reference frame:","chan":"stdout","logger":"task"}
{"timestamp":"2025-09-01T19:43:33.316818Z","level":"info","event":"         [ +0.000000 +0.000000 +0.000000 ]","chan":"stdout","logger":"task"}
{"timestamp":"2025-09-01T19:43:33.317430Z","level":"info","event":"     Initializing site 'H'","chan":"stdout","logger":"task"}
{"timestamp":"2025-09-01T19:43:33.317847Z","level":"info","event":"       Electron density: proportional to exp(-r/0.34641)*erfc((r-0)/0.390882) with norm 0.587","chan":"stdout","logger":"task"}
{"timestamp":"2025-09-01T19:43:33.318190Z","level":"info","event":"       Charge density: gaussian nuclear width 0.377945 with net site charge -0.413","chan":"stdout","logger":"task"}
{"timestamp":"2025-09-01T19:43:33.318478Z","level":"info","event":"       Polarizability: cuspless exponential with width 0.39 and norm 3.3","chan":"stdout","logger":"task"}
{"timestamp":"2025-09-01T19:43:33.318786Z","level":"info","event":"       Positions in reference frame:","chan":"stdout","logger":"task"}
{"timestamp":"2025-09-01T19:43:33.319082Z","level":"info","event":"         [ +0.000000 -1.441945 +1.122523 ]","chan":"stdout","logger":"task"}
{"timestamp":"2025-09-01T19:43:33.319515Z","level":"info","event":"         [ +0.000000 +1.441945 +1.122523 ]","chan":"stdout","logger":"task"}
{"timestamp":"2025-09-01T19:43:33.320175Z","level":"info","event":"     Net charge: 0   dipole magnitude: 0.927204","chan":"stdout","logger":"task"}
{"timestamp":"2025-09-01T19:43:33.320570Z","level":"info","event":"     Initializing spherical shell mfKernel with radius 2.61727 Bohr","chan":"stdout","logger":"task"}
{"timestamp":"2025-09-01T19:43:33.321025Z","level":"info","event":"     deltaS corrections:","chan":"stdout","logger":"task"}
{"timestamp":"2025-09-01T19:43:33.321393Z","level":"info","event":"       site 'O': -7.54299","chan":"stdout","logger":"task"}
{"timestamp":"2025-09-01T19:43:33.322146Z","level":"info","event":"       site 'H': -6.83917","chan":"stdout","logger":"task"}
{"timestamp":"2025-09-01T19:43:33.322500Z","level":"info","event":"   Initializing fluid molecule 'Na+'","chan":"stdout","logger":"task"}
{"timestamp":"2025-09-01T19:43:33.322879Z","level":"info","event":"     Initializing site 'Na'","chan":"stdout","logger":"task"}
{"timestamp":"2025-09-01T19:43:33.323291Z","level":"info","event":"       Electron density: proportional to exp(-r/0.19682)*erfc((r-0.71491)/0.41314) with norm 8.1383","chan":"stdout","logger":"task"}
{"timestamp":"2025-09-01T19:43:33.324414Z","level":"info","event":"       Charge density: gaussian nuclear width 0.365347 with net site charge -1","chan":"stdout","logger":"task"}
{"timestamp":"2025-09-01T19:43:33.325067Z","level":"info","event":"       Hard sphere radius: 1.86327 bohrs","chan":"stdout","logger":"task"}
{"timestamp":"2025-09-01T19:43:33.325448Z","level":"info","event":"       Positions in reference frame:","chan":"stdout","logger":"task"}
{"timestamp":"2025-09-01T19:43:33.325816Z","level":"info","event":"         [ +0.000000 +0.000000 +0.000000 ]","chan":"stdout","logger":"task"}
{"timestamp":"2025-09-01T19:43:33.326186Z","level":"info","event":"     Net charge: -1   dipole magnitude: 0","chan":"stdout","logger":"task"}
{"timestamp":"2025-09-01T19:43:33.327575Z","level":"info","event":"     Initializing gaussian mfKernel with width: 1.55004 Bohr","chan":"stdout","logger":"task"}
{"timestamp":"2025-09-01T19:43:33.328013Z","level":"info","event":"     deltaS corrections:","chan":"stdout","logger":"task"}
{"timestamp":"2025-09-01T19:43:33.328793Z","level":"info","event":"       site 'Na': -22.3555","chan":"stdout","logger":"task"}
{"timestamp":"2025-09-01T19:43:33.329174Z","level":"info","event":"   Initializing fluid molecule 'F-'","chan":"stdout","logger":"task"}
{"timestamp":"2025-09-01T19:43:33.330230Z","level":"info","event":"     Initializing site 'F'","chan":"stdout","logger":"task"}
{"timestamp":"2025-09-01T19:43:33.330657Z","level":"info","event":"       Electron density: proportional to exp(-r/0.38886)*erfc((r-0)/0.438782) with norm 8","chan":"stdout","logger":"task"}
{"timestamp":"2025-09-01T19:43:33.331035Z","level":"info","event":"       Charge density: gaussian nuclear width 0.374796 with net site charge 1","chan":"stdout","logger":"task"}
{"timestamp":"2025-09-01T19:43:33.331365Z","level":"info","event":"       Hard sphere radius: 2.39995 bohrs","chan":"stdout","logger":"task"}
{"timestamp":"2025-09-01T19:43:33.331848Z","level":"info","event":"       Positions in reference frame:","chan":"stdout","logger":"task"}
{"timestamp":"2025-09-01T19:43:33.332200Z","level":"info","event":"         [ +0.000000 +0.000000 +0.000000 ]","chan":"stdout","logger":"task"}
{"timestamp":"2025-09-01T19:43:33.332568Z","level":"info","event":"     Net charge: 1   dipole magnitude: 0","chan":"stdout","logger":"task"}
{"timestamp":"2025-09-01T19:43:33.332944Z","level":"info","event":"     Initializing gaussian mfKernel with width: 1.59012 Bohr","chan":"stdout","logger":"task"}
{"timestamp":"2025-09-01T19:43:33.334614Z","level":"info","event":"     deltaS corrections:","chan":"stdout","logger":"task"}
{"timestamp":"2025-09-01T19:43:33.335225Z","level":"info","event":"       site 'F': -9.04335","chan":"stdout","logger":"task"}
{"timestamp":"2025-09-01T19:43:33.335627Z","level":"info","event":"","chan":"stdout","logger":"task"}
{"timestamp":"2025-09-01T19:43:33.336033Z","level":"info","event":"Correction to mu due to finite nuclear width = -0.0576434","chan":"stdout","logger":"task"}
{"timestamp":"2025-09-01T19:43:33.336462Z","level":"info","event":"   Cavity determined by nc: 0.00142 and sigma: 0.707107","chan":"stdout","logger":"task"}
{"timestamp":"2025-09-01T19:43:33.336937Z","level":"info","event":"   Nonlocal vdW cavity from gaussian model electron density with norm = 8 and sigma = 0.993594 bohr","chan":"stdout","logger":"task"}
{"timestamp":"2025-09-01T19:43:33.338171Z","level":"info","event":"   Charge asymmetry in cavity with sensitivity pCavity = 36.5 e-bohr/Eh","chan":"stdout","logger":"task"}
{"timestamp":"2025-09-01T19:43:33.338641Z","level":"info","event":"   Electrostatic cavity expanded by eta = 1.46 bohrs","chan":"stdout","logger":"task"}
{"timestamp":"2025-09-01T19:43:33.339211Z","level":"info","event":"   Weighted density cavitation model constrained by Nbulk: 0.0049383 bohr^-3, Pvap: 3.14029 kPa, Rvdw: 2.61727 bohr and sigmaBulk: 4.62e-05 Eh/bohr^2 at T: 298 K.","chan":"stdout","logger":"task"}
{"timestamp":"2025-09-01T19:43:33.340019Z","level":"info","event":"   Weighted density dispersion model using vdW pair potentials with single solvent site with sqrtC6eff: 0.77 SI.","chan":"stdout","logger":"task"}
{"timestamp":"2025-09-01T19:43:33.340908Z","level":"info","event":"","chan":"stdout","logger":"task"}
{"timestamp":"2025-09-01T19:43:33.357214Z","level":"info","event":"","chan":"stdout","logger":"task"}
{"timestamp":"2025-09-01T19:43:33.357682Z","level":"info","event":"---- Citations for features of the code used in this run ----","chan":"stdout","logger":"task"}
{"timestamp":"2025-09-01T19:43:33.358076Z","level":"info","event":"","chan":"stdout","logger":"task"}
{"timestamp":"2025-09-01T19:43:33.358580Z","level":"info","event":"   Software package:","chan":"stdout","logger":"task"}
{"timestamp":"2025-09-01T19:43:33.359007Z","level":"info","event":"      R. Sundararaman, K. Letchworth-Weaver, K.A. Schwarz, D. Gunceler, Y. Ozhabes and T.A. Arias, 'JDFTx: software for joint density-functional theory', SoftwareX 6, 278 (2017)","chan":"stdout","logger":"task"}
{"timestamp":"2025-09-01T19:43:33.359480Z","level":"info","event":"","chan":"stdout","logger":"task"}
{"timestamp":"2025-09-01T19:43:33.359843Z","level":"info","event":"   gga-PBE exchange-correlation functional:","chan":"stdout","logger":"task"}
{"timestamp":"2025-09-01T19:43:33.360267Z","level":"info","event":"      J.P. Perdew, K. Burke and M. Ernzerhof, Phys. Rev. Lett. 77, 3865 (1996)","chan":"stdout","logger":"task"}
{"timestamp":"2025-09-01T19:43:33.360668Z","level":"info","event":"","chan":"stdout","logger":"task"}
{"timestamp":"2025-09-01T19:43:33.360968Z","level":"info","event":"   Pseudopotentials:","chan":"stdout","logger":"task"}
{"timestamp":"2025-09-01T19:43:33.361338Z","level":"info","event":"      KF Garrity, JW Bennett, KM Rabe and D Vanderbilt, Comput. Mater. Sci. 81, 446 (2014)","chan":"stdout","logger":"task"}
{"timestamp":"2025-09-01T19:43:33.362173Z","level":"info","event":"","chan":"stdout","logger":"task"}
{"timestamp":"2025-09-01T19:43:33.365040Z","level":"info","event":"   DFT-D2 dispersion correction:","chan":"stdout","logger":"task"}
{"timestamp":"2025-09-01T19:43:33.372480Z","level":"info","event":"      S. Grimme, J. Comput. Chem. 27, 1787 (2006)","chan":"stdout","logger":"task"}
{"timestamp":"2025-09-01T19:43:33.373035Z","level":"info","event":"","chan":"stdout","logger":"task"}
{"timestamp":"2025-09-01T19:43:33.373815Z","level":"info","event":"   Charge-asymmetric nonlocally-determined local-electric (CANDLE) solvation model:","chan":"stdout","logger":"task"}
{"timestamp":"2025-09-01T19:43:33.374432Z","level":"info","event":"      R. Sundararaman and W.A. Goddard III, J. Chem. Phys. 142, 064107 (2015)","chan":"stdout","logger":"task"}
{"timestamp":"2025-09-01T19:43:33.374843Z","level":"info","event":"","chan":"stdout","logger":"task"}
{"timestamp":"2025-09-01T19:43:33.375202Z","level":"info","event":"   Total energy minimization with Auxiliary Hamiltonian:","chan":"stdout","logger":"task"}
{"timestamp":"2025-09-01T19:43:33.375668Z","level":"info","event":"      C. Freysoldt, S. Boeck, and J. Neugebauer, Phys. Rev. B 79, 241103(R) (2009)","chan":"stdout","logger":"task"}
{"timestamp":"2025-09-01T19:43:33.376060Z","level":"info","event":"","chan":"stdout","logger":"task"}
{"timestamp":"2025-09-01T19:43:33.376463Z","level":"info","event":"This list may not be complete. Please suggest additional citations or","chan":"stdout","logger":"task"}
{"timestamp":"2025-09-01T19:43:33.376877Z","level":"info","event":"report any other bugs at https://github.com/shankar1729/jdftx/issues","chan":"stdout","logger":"task"}
{"timestamp":"2025-09-01T19:43:33.377731Z","level":"info","event":"","chan":"stdout","logger":"task"}
{"timestamp":"2025-09-01T19:43:33.378387Z","level":"info","event":"Initialization completed successfully at t[s]:    620.55","chan":"stdout","logger":"task"}
{"timestamp":"2025-09-01T19:43:33.379037Z","level":"info","event":"","chan":"stdout","logger":"task"}
{"timestamp":"2025-09-01T19:43:33.788644Z","level":"info","event":"Fluid solver invoked on fresh (random / LCAO) wavefunctions","chan":"stdout","logger":"task"}
{"timestamp":"2025-09-01T19:43:33.788984Z","level":"info","event":"Running a vacuum solve first:","chan":"stdout","logger":"task"}
{"timestamp":"2025-09-01T19:43:33.789336Z","level":"info","event":"","chan":"stdout","logger":"task"}
{"timestamp":"2025-09-01T19:43:33.789611Z","level":"info","event":"-------- Initial electronic minimization -----------","chan":"stdout","logger":"task"}
{"timestamp":"2025-09-01T19:43:56.815054Z","level":"info","event":"\tFillingsUpdate:  mu: -0.051019076  nElectrons: 249.900000","chan":"stdout","logger":"task"}
{"timestamp":"2025-09-01T19:43:56.817722Z","level":"info","event":"ElecMinimize: Iter:   0  F: -1032.078217899844276  |grad|_K:  4.205e-03  alpha:  1.000e+00","chan":"stdout","logger":"task"}
{"timestamp":"2025-09-01T19:44:28.247079Z","level":"info","event":"ElecMinimize: \tStep increased F by 1.883812e+01, reducing alpha to 1.902526e-02.","chan":"stdout","logger":"task"}
{"timestamp":"2025-09-01T19:44:51.649722Z","level":"info","event":"\tFillingsUpdate:  mu: -0.046202789  nElectrons: 249.900000","chan":"stdout","logger":"task"}
{"timestamp":"2025-09-01T19:44:51.658517Z","level":"info","event":"\tSubspaceRotationAdjust: set factor to 0.598","chan":"stdout","logger":"task"}
{"timestamp":"2025-09-01T19:44:51.660006Z","level":"info","event":"ElecMinimize: Iter:   1  F: -1033.180635739820445  |grad|_K:  2.080e-03  alpha:  1.903e-02  linmin: -1.802e-02  t[s]:    698.89","chan":"stdout","logger":"task"}
{"timestamp":"2025-09-01T19:45:22.302076Z","level":"info","event":"\tFillingsUpdate:  mu: -0.052999563  nElectrons: 249.900000","chan":"stdout","logger":"task"}
{"timestamp":"2025-09-01T19:45:22.311965Z","level":"info","event":"\tSubspaceRotationAdjust: set factor to 0.418","chan":"stdout","logger":"task"}
{"timestamp":"2025-09-01T19:45:22.312444Z","level":"info","event":"ElecMinimize: Iter:   2  F: -1033.559050333585219  |grad|_K:  1.144e-03  alpha:  2.594e-02  linmin:  8.928e-04  t[s]:    729.55","chan":"stdout","logger":"task"}
{"timestamp":"2025-09-01T19:45:53.798849Z","level":"info","event":"\tFillingsUpdate:  mu: -0.057558665  nElectrons: 249.900000","chan":"stdout","logger":"task"}
{"timestamp":"2025-09-01T19:45:53.807020Z","level":"info","event":"\tSubspaceRotationAdjust: set factor to 0.253","chan":"stdout","logger":"task"}
{"timestamp":"2025-09-01T19:45:53.808541Z","level":"info","event":"ElecMinimize: Iter:   3  F: -1033.653259932882065  |grad|_K:  1.336e-03  alpha:  6.535e-02  linmin:  4.785e-03  t[s]:    761.04","chan":"stdout","logger":"task"}
{"timestamp":"2025-09-01T19:46:24.629973Z","level":"info","event":"\tFillingsUpdate:  mu: -0.056839004  nElectrons: 249.900000","chan":"stdout","logger":"task"}
{"timestamp":"2025-09-01T19:46:24.638252Z","level":"info","event":"\tSubspaceRotationAdjust: set factor to 0.168","chan":"stdout","logger":"task"}
{"timestamp":"2025-09-01T19:46:24.640393Z","level":"info","event":"ElecMinimize: Iter:   4  F: -1033.653941134642992  |grad|_K:  1.106e-03  alpha:  1.621e-03  linmin: -6.162e-05  t[s]:    791.87","chan":"stdout","logger":"task"}
{"timestamp":"2025-09-01T19:46:33.444695Z","level":"info","event":"ElecMinimize: \tPredicted alpha/alphaT>3.000000, increasing alphaT to 4.862036e-03.","chan":"stdout","logger":"task"}
{"timestamp":"2025-09-01T19:46:42.161184Z","level":"info","event":"ElecMinimize: \tPredicted alpha/alphaT>3.000000, increasing alphaT to 1.458611e-02.","chan":"stdout","logger":"task"}
{"timestamp":"2025-09-01T19:47:12.979006Z","level":"info","event":"\tFillingsUpdate:  mu: -0.028738173  nElectrons: 249.900000","chan":"stdout","logger":"task"}
{"timestamp":"2025-09-01T19:47:34.683809Z","level":"info","event":"\tSubspaceRotationAdjust: set factor to 0.105","chan":"stdout","logger":"task"}
{"timestamp":"2025-09-01T19:47:34.684490Z","level":"info","event":"\tSubspaceRotationAdjust: resetting CG because factor has changed by 0.105242","chan":"stdout","logger":"task"}
{"timestamp":"2025-09-01T19:47:34.685670Z","level":"info","event":"ElecMinimize: \tState modified externally: resetting search direction.","chan":"stdout","logger":"task"}
{"timestamp":"2025-09-01T19:47:34.686125Z","level":"info","event":"ElecMinimize: Iter:   5  F: -1033.756580922422700  |grad|_K:  7.991e-04  alpha:  3.599e-02","chan":"stdout","logger":"task"}
{"timestamp":"2025-09-01T19:47:42.786834Z","level":"info","event":"ElecMinimize: \tPredicted alpha/alphaT>3.000000, increasing alphaT to 1.079756e-01.","chan":"stdout","logger":"task"}
{"timestamp":"2025-09-01T19:48:13.132268Z","level":"info","event":"\tFillingsUpdate:  mu: -0.018891628  nElectrons: 249.900000","chan":"stdout","logger":"task"}
{"timestamp":"2025-09-01T19:48:13.140254Z","level":"info","event":"\tSubspaceRotationAdjust: set factor to 0.11","chan":"stdout","logger":"task"}
{"timestamp":"2025-09-01T19:48:13.141046Z","level":"info","event":"ElecMinimize: Iter:   6  F: -1034.138031723767654  |grad|_K:  3.287e-04  alpha:  2.379e-01  linmin: -7.088e-03  t[s]:    900.38","chan":"stdout","logger":"task"}
{"timestamp":"2025-09-01T19:48:46.509779Z","level":"info","event":"\tFillingsUpdate:  mu: -0.016856648  nElectrons: 249.900000","chan":"stdout","logger":"task"}
{"timestamp":"2025-09-01T19:48:46.517780Z","level":"info","event":"\tSubspaceRotationAdjust: set factor to 0.114","chan":"stdout","logger":"task"}
{"timestamp":"2025-09-01T19:48:46.518733Z","level":"info","event":"ElecMinimize: Iter:   7  F: -1034.323847467009955  |grad|_K:  2.701e-04  alpha:  6.361e-01  linmin: -3.761e-04  t[s]:    933.75","chan":"stdout","logger":"task"}
{"timestamp":"2025-09-01T19:49:17.767718Z","level":"info","event":"\tFillingsUpdate:  mu: -0.032719506  nElectrons: 249.900000","chan":"stdout","logger":"task"}
{"timestamp":"2025-09-01T19:49:17.776129Z","level":"info","event":"\tSubspaceRotationAdjust: set factor to 0.0978","chan":"stdout","logger":"task"}
{"timestamp":"2025-09-01T19:49:17.776828Z","level":"info","event":"ElecMinimize: Iter:   8  F: -1034.389129306232689  |grad|_K:  2.293e-04  alpha:  3.667e-01  linmin:  2.633e-06  t[s]:    965.01","chan":"stdout","logger":"task"}
{"timestamp":"2025-09-01T19:49:49.404842Z","level":"info","event":"\tFillingsUpdate:  mu: -0.037680812  nElectrons: 249.900000","chan":"stdout","logger":"task"}
{"timestamp":"2025-09-01T19:49:49.413276Z","level":"info","event":"\tSubspaceRotationAdjust: set factor to 0.0806","chan":"stdout","logger":"task"}
{"timestamp":"2025-09-01T19:49:49.415431Z","level":"info","event":"ElecMinimize: Iter:   9  F: -1034.428348823618990  |grad|_K:  1.464e-04  alpha:  3.163e-01  linmin:  1.947e-05  t[s]:    996.65","chan":"stdout","logger":"task"}
{"timestamp":"2025-09-01T19:50:20.980519Z","level":"info","event":"\tFillingsUpdate:  mu: -0.041077322  nElectrons: 249.900000","chan":"stdout","logger":"task"}
{"timestamp":"2025-09-01T19:50:20.989328Z","level":"info","event":"\tSubspaceRotationAdjust: set factor to 0.0793","chan":"stdout","logger":"task"}
{"timestamp":"2025-09-01T19:50:20.991635Z","level":"info","event":"ElecMinimize: Iter:  10  F: -1034.450951518937018  |grad|_K:  9.547e-05  alpha:  4.493e-01  linmin:  8.021e-06  t[s]:   1028.22","chan":"stdout","logger":"task"}
{"timestamp":"2025-09-01T19:50:52.847041Z","level":"info","event":"\tFillingsUpdate:  mu: -0.040401051  nElectrons: 249.900000","chan":"stdout","logger":"task"}
{"timestamp":"2025-09-01T19:50:52.855669Z","level":"info","event":"\tSubspaceRotationAdjust: set factor to 0.0769","chan":"stdout","logger":"task"}
{"timestamp":"2025-09-01T19:50:52.856658Z","level":"info","event":"ElecMinimize: Iter:  11  F: -1034.460684789409015  |grad|_K:  7.478e-05  alpha:  4.540e-01  linmin:  1.670e-05  t[s]:   1060.09","chan":"stdout","logger":"task"}
{"timestamp":"2025-09-01T19:51:24.066483Z","level":"info","event":"\tFillingsUpdate:  mu: -0.041059111  nElectrons: 249.900000","chan":"stdout","logger":"task"}
{"timestamp":"2025-09-01T19:51:24.074591Z","level":"info","event":"\tSubspaceRotationAdjust: set factor to 0.0818","chan":"stdout","logger":"task"}
{"timestamp":"2025-09-01T19:51:24.075029Z","level":"info","event":"ElecMinimize: Iter:  12  F: -1034.467328819049271  |grad|_K:  5.736e-05  alpha:  5.073e-01  linmin:  1.388e-05  t[s]:   1091.31","chan":"stdout","logger":"task"}
{"timestamp":"2025-09-01T19:51:55.309951Z","level":"info","event":"\tFillingsUpdate:  mu: -0.042657113  nElectrons: 249.900000","chan":"stdout","logger":"task"}
{"timestamp":"2025-09-01T19:51:55.318554Z","level":"info","event":"\tSubspaceRotationAdjust: set factor to 0.0866","chan":"stdout","logger":"task"}
{"timestamp":"2025-09-01T19:51:55.320005Z","level":"info","event":"ElecMinimize: Iter:  13  F: -1034.471516495024161  |grad|_K:  5.132e-05  alpha:  5.440e-01  linmin:  7.339e-06  t[s]:   1122.55","chan":"stdout","logger":"task"}
{"timestamp":"2025-09-01T19:52:28.016937Z","level":"info","event":"\tFillingsUpdate:  mu: -0.042949828  nElectrons: 249.900000","chan":"stdout","logger":"task"}
{"timestamp":"2025-09-01T19:52:28.026336Z","level":"info","event":"\tSubspaceRotationAdjust: set factor to 0.0803","chan":"stdout","logger":"task"}
{"timestamp":"2025-09-01T19:52:28.028384Z","level":"info","event":"ElecMinimize: Iter:  14  F: -1034.474621733628965  |grad|_K:  4.975e-05  alpha:  5.024e-01  linmin:  1.003e-06  t[s]:   1155.26","chan":"stdout","logger":"task"}
{"timestamp":"2025-09-01T19:53:00.807797Z","level":"info","event":"\tFillingsUpdate:  mu: -0.041955695  nElectrons: 249.900000","chan":"stdout","logger":"task"}
{"timestamp":"2025-09-01T19:53:00.818616Z","level":"info","event":"\tSubspaceRotationAdjust: set factor to 0.0757","chan":"stdout","logger":"task"}
{"timestamp":"2025-09-01T19:53:00.820977Z","level":"info","event":"ElecMinimize: Iter:  15  F: -1034.477161060434355  |grad|_K:  4.064e-05  alpha:  4.357e-01  linmin: -4.026e-06  t[s]:   1188.05","chan":"stdout","logger":"task"}
{"timestamp":"2025-09-01T19:53:31.633920Z","level":"info","event":"\tFillingsUpdate:  mu: -0.043379487  nElectrons: 249.900000","chan":"stdout","logger":"task"}
{"timestamp":"2025-09-01T19:53:31.642017Z","level":"info","event":"\tSubspaceRotationAdjust: set factor to 0.087","chan":"stdout","logger":"task"}
{"timestamp":"2025-09-01T19:53:31.643435Z","level":"info","event":"ElecMinimize: Iter:  16  F: -1034.480047081412522  |grad|_K:  3.477e-05  alpha:  7.401e-01  linmin:  8.583e-07  t[s]:   1218.88","chan":"stdout","logger":"task"}
{"timestamp":"2025-09-01T19:54:05.209498Z","level":"info","event":"\tFillingsUpdate:  mu: -0.044497735  nElectrons: 249.900000","chan":"stdout","logger":"task"}
{"timestamp":"2025-09-01T19:54:05.218817Z","level":"info","event":"\tSubspaceRotationAdjust: set factor to 0.088","chan":"stdout","logger":"task"}
{"timestamp":"2025-09-01T19:54:05.219515Z","level":"info","event":"ElecMinimize: Iter:  17  F: -1034.481996012067384  |grad|_K:  3.494e-05  alpha:  6.840e-01  linmin:  3.827e-07  t[s]:   1252.45","chan":"stdout","logger":"task"}
{"timestamp":"2025-09-01T19:54:39.645589Z","level":"info","event":"\tFillingsUpdate:  mu: -0.044781542  nElectrons: 249.900000","chan":"stdout","logger":"task"}
{"timestamp":"2025-09-01T19:54:39.656383Z","level":"info","event":"\tSubspaceRotationAdjust: set factor to 0.0727","chan":"stdout","logger":"task"}
{"timestamp":"2025-09-01T19:54:39.658446Z","level":"info","event":"ElecMinimize: Iter:  18  F: -1034.483119418059232  |grad|_K:  3.045e-05  alpha:  3.903e-01  linmin: -2.254e-06  t[s]:   1286.89","chan":"stdout","logger":"task"}
{"timestamp":"2025-09-01T19:55:13.318740Z","level":"info","event":"\tFillingsUpdate:  mu: -0.044843083  nElectrons: 249.900000","chan":"stdout","logger":"task"}
{"timestamp":"2025-09-01T19:55:13.327852Z","level":"info","event":"\tSubspaceRotationAdjust: set factor to 0.0697","chan":"stdout","logger":"task"}
{"timestamp":"2025-09-01T19:55:13.329564Z","level":"info","event":"ElecMinimize: Iter:  19  F: -1034.484077998968360  |grad|_K:  2.196e-05  alpha:  4.375e-01  linmin:  1.324e-06  t[s]:   1320.56","chan":"stdout","logger":"task"}
{"timestamp":"2025-09-01T19:55:46.301819Z","level":"info","event":"\tFillingsUpdate:  mu: -0.044845809  nElectrons: 249.900000","chan":"stdout","logger":"task"}
{"timestamp":"2025-09-01T19:55:46.310492Z","level":"info","event":"\tSubspaceRotationAdjust: set factor to 0.0727","chan":"stdout","logger":"task"}
{"timestamp":"2025-09-01T19:55:46.312553Z","level":"info","event":"ElecMinimize: Iter:  20  F: -1034.484689853524742  |grad|_K:  1.625e-05  alpha:  5.397e-01  linmin:  2.610e-06  t[s]:   1353.55","chan":"stdout","logger":"task"}
{"timestamp":"2025-09-01T19:56:18.501848Z","level":"info","event":"\tFillingsUpdate:  mu: -0.044930689  nElectrons: 249.900000","chan":"stdout","logger":"task"}
{"timestamp":"2025-09-01T19:56:18.509574Z","level":"info","event":"\tSubspaceRotationAdjust: set factor to 0.0707","chan":"stdout","logger":"task"}
{"timestamp":"2025-09-01T19:56:18.510236Z","level":"info","event":"ElecMinimize: Iter:  21  F: -1034.484992522578068  |grad|_K:  1.317e-05  alpha:  4.871e-01  linmin:  8.026e-07  t[s]:   1385.75","chan":"stdout","logger":"task"}
{"timestamp":"2025-09-01T19:56:52.026399Z","level":"info","event":"\tFillingsUpdate:  mu: -0.044843180  nElectrons: 249.900000","chan":"stdout","logger":"task"}
{"timestamp":"2025-09-01T19:56:52.034586Z","level":"info","event":"\tSubspaceRotationAdjust: set factor to 0.0682","chan":"stdout","logger":"task"}
{"timestamp":"2025-09-01T19:56:52.036631Z","level":"info","event":"ElecMinimize: Iter:  22  F: -1034.485176893041626  |grad|_K:  9.871e-06  alpha:  4.513e-01  linmin:  9.428e-07  t[s]:   1419.27","chan":"stdout","logger":"task"}
{"timestamp":"2025-09-01T19:57:23.620636Z","level":"info","event":"\tFillingsUpdate:  mu: -0.044608290  nElectrons: 249.900000","chan":"stdout","logger":"task"}
{"timestamp":"2025-09-01T19:57:23.629122Z","level":"info","event":"\tSubspaceRotationAdjust: set factor to 0.0679","chan":"stdout","logger":"task"}
{"timestamp":"2025-09-01T19:57:23.630577Z","level":"info","event":"ElecMinimize: Iter:  23  F: -1034.485283073648588  |grad|_K:  7.728e-06  alpha:  4.626e-01  linmin:  1.082e-06  t[s]:   1450.86","chan":"stdout","logger":"task"}
{"timestamp":"2025-09-01T19:57:54.754034Z","level":"info","event":"\tFillingsUpdate:  mu: -0.044514441  nElectrons: 249.900000","chan":"stdout","logger":"task"}
{"timestamp":"2025-09-01T19:57:54.762134Z","level":"info","event":"\tSubspaceRotationAdjust: set factor to 0.0703","chan":"stdout","logger":"task"}
{"timestamp":"2025-09-01T19:57:54.762602Z","level":"info","event":"ElecMinimize: Iter:  24  F: -1034.485354140862228  |grad|_K:  6.122e-06  alpha:  5.051e-01  linmin:  8.415e-07  t[s]:   1482.00","chan":"stdout","logger":"task"}
{"timestamp":"2025-09-01T19:58:26.048516Z","level":"info","event":"\tFillingsUpdate:  mu: -0.044519534  nElectrons: 249.900000","chan":"stdout","logger":"task"}
{"timestamp":"2025-09-01T19:58:26.057050Z","level":"info","event":"\tSubspaceRotationAdjust: set factor to 0.0764","chan":"stdout","logger":"task"}
{"timestamp":"2025-09-01T19:58:26.059000Z","level":"info","event":"ElecMinimize: Iter:  25  F: -1034.485397845511216  |grad|_K:  4.796e-06  alpha:  4.950e-01  linmin:  9.161e-07  t[s]:   1513.29","chan":"stdout","logger":"task"}
{"timestamp":"2025-09-01T19:58:56.577403Z","level":"info","event":"\tFillingsUpdate:  mu: -0.044382950  nElectrons: 249.900000","chan":"stdout","logger":"task"}
{"timestamp":"2025-09-01T19:58:56.588101Z","level":"info","event":"\tSubspaceRotationAdjust: set factor to 0.0824","chan":"stdout","logger":"task"}
{"timestamp":"2025-09-01T19:58:56.588709Z","level":"info","event":"ElecMinimize: Iter:  26  F: -1034.485428291477092  |grad|_K:  4.214e-06  alpha:  5.619e-01  linmin: -5.072e-07  t[s]:   1543.82","chan":"stdout","logger":"task"}
{"timestamp":"2025-09-01T19:59:27.109941Z","level":"info","event":"\tFillingsUpdate:  mu: -0.044271649  nElectrons: 249.900000","chan":"stdout","logger":"task"}
{"timestamp":"2025-09-01T19:59:27.123779Z","level":"info","event":"\tSubspaceRotationAdjust: set factor to 0.079","chan":"stdout","logger":"task"}
{"timestamp":"2025-09-01T19:59:27.125929Z","level":"info","event":"ElecMinimize: Iter:  27  F: -1034.485447395696610  |grad|_K:  3.855e-06  alpha:  4.565e-01  linmin: -1.641e-06  t[s]:   1574.36","chan":"stdout","logger":"task"}
{"timestamp":"2025-09-01T19:59:57.363653Z","level":"info","event":"\tFillingsUpdate:  mu: -0.044203553  nElectrons: 249.900000","chan":"stdout","logger":"task"}
{"timestamp":"2025-09-01T19:59:57.371267Z","level":"info","event":"\tSubspaceRotationAdjust: set factor to 0.0756","chan":"stdout","logger":"task"}
{"timestamp":"2025-09-01T19:59:57.371867Z","level":"info","event":"ElecMinimize: Iter:  28  F: -1034.485463118184271  |grad|_K:  3.073e-06  alpha:  4.487e-01  linmin: -2.122e-06  t[s]:   1604.61","chan":"stdout","logger":"task"}
{"timestamp":"2025-09-01T20:00:28.490817Z","level":"info","event":"\tFillingsUpdate:  mu: -0.044133880  nElectrons: 249.900000","chan":"stdout","logger":"task"}
{"timestamp":"2025-09-01T20:00:28.498651Z","level":"info","event":"\tSubspaceRotationAdjust: set factor to 0.0877","chan":"stdout","logger":"task"}
{"timestamp":"2025-09-01T20:00:28.499138Z","level":"info","event":"ElecMinimize: Iter:  29  F: -1034.485476301094423  |grad|_K:  2.479e-06  alpha:  5.918e-01  linmin: -3.645e-06  t[s]:   1635.73","chan":"stdout","logger":"task"}
{"timestamp":"2025-09-01T20:01:00.919875Z","level":"info","event":"\tFillingsUpdate:  mu: -0.044083628  nElectrons: 249.900000","chan":"stdout","logger":"task"}
{"timestamp":"2025-09-01T20:01:00.929097Z","level":"info","event":"\tSubspaceRotationAdjust: set factor to 0.0954","chan":"stdout","logger":"task"}
[...]
{"timestamp":"2025-09-01T20:25:49.010360Z","level":"info","event":"\tSubspaceRotationAdjust: set factor to 0.0963","chan":"stdout","logger":"task"}
{"timestamp":"2025-09-01T20:25:49.012835Z","level":"info","event":"ElecMinimize: Iter:   5  F: -1034.631643454210007  |grad|_K:  3.242e-06  alpha:  3.793e-01  linmin: -9.152e-05  t[s]:    256.06","chan":"stdout","logger":"task"}
{"timestamp":"2025-09-01T20:26:06.275051Z","level":"info","event":"\tLinear fluid (dielectric constant: 78.4, screening length: 5.74355 Bohr) occupying 0.529501 of unit cell:\tCompleted after 11 iterations at t[s]:    265.05","chan":"stdout","logger":"task"}
{"timestamp":"2025-09-01T20:26:22.851354Z","level":"info","event":"\tLinear fluid (dielectric constant: 78.4, screening length: 5.74355 Bohr) occupying 0.529484 of unit cell:\tCompleted after 4 iterations at t[s]:    273.81","chan":"stdout","logger":"task"}
{"timestamp":"2025-09-01T20:26:22.851824Z","level":"info","event":"\tFillingsUpdate:  mu: -0.185418390  nElectrons: 250.100000","chan":"stdout","logger":"task"}
{"timestamp":"2025-09-01T20:26:22.859962Z","level":"info","event":"\tSubspaceRotationAdjust: set factor to 0.0799","chan":"stdout","logger":"task"}
{"timestamp":"2025-09-01T20:26:22.860497Z","level":"info","event":"ElecMinimize: Iter:   6  F: -1034.631654545572019  |grad|_K:  2.351e-06  alpha:  4.444e-01  linmin: -1.033e-04  t[s]:    289.91","chan":"stdout","logger":"task"}
{"timestamp":"2025-09-01T20:26:39.941205Z","level":"info","event":"\tLinear fluid (dielectric constant: 78.4, screening length: 5.74355 Bohr) occupying 0.529422 of unit cell:\tCompleted after 9 iterations at t[s]:    298.78","chan":"stdout","logger":"task"}
{"timestamp":"2025-09-01T20:26:56.088384Z","level":"info","event":"\tLinear fluid (dielectric constant: 78.4, screening length: 5.74355 Bohr) occupying 0.529431 of unit cell:\tCompleted after 3 iterations at t[s]:    307.34","chan":"stdout","logger":"task"}
{"timestamp":"2025-09-01T20:26:56.088768Z","level":"info","event":"\tFillingsUpdate:  mu: -0.185589106  nElectrons: 250.100000","chan":"stdout","logger":"task"}
{"timestamp":"2025-09-01T20:26:56.096751Z","level":"info","event":"\tSubspaceRotationAdjust: set factor to 0.0688","chan":"stdout","logger":"task"}
{"timestamp":"2025-09-01T20:26:56.097865Z","level":"info","event":"ElecMinimize: Iter:   7  F: -1034.631659527640295  |grad|_K:  1.446e-06  alpha:  3.800e-01  linmin: -2.706e-05  t[s]:    323.14","chan":"stdout","logger":"task"}
{"timestamp":"2025-09-01T20:27:12.678261Z","level":"info","event":"\tLinear fluid (dielectric constant: 78.4, screening length: 5.74355 Bohr) occupying 0.529396 of unit cell:\tCompleted after 3 iterations at t[s]:    331.66","chan":"stdout","logger":"task"}
{"timestamp":"2025-09-01T20:27:29.214663Z","level":"info","event":"\tLinear fluid (dielectric constant: 78.4, screening length: 5.74355 Bohr) occupying 0.529372 of unit cell:\tCompleted after 3 iterations at t[s]:    340.05","chan":"stdout","logger":"task"}
{"timestamp":"2025-09-01T20:27:29.215149Z","level":"info","event":"\tFillingsUpdate:  mu: -0.185485046  nElectrons: 250.100000","chan":"stdout","logger":"task"}
{"timestamp":"2025-09-01T20:27:29.223309Z","level":"info","event":"\tSubspaceRotationAdjust: set factor to 0.0825","chan":"stdout","logger":"task"}
{"timestamp":"2025-09-01T20:27:29.223828Z","level":"info","event":"ElecMinimize: Iter:   8  F: -1034.631662674799372  |grad|_K:  1.124e-06  alpha:  6.372e-01  linmin:  4.153e-06  t[s]:    356.27","chan":"stdout","logger":"task"}
{"timestamp":"2025-09-01T20:27:29.224284Z","level":"info","event":"ElecMinimize: Converged (|Delta F|<1.000000e-05 for 2 iters).","chan":"stdout","logger":"task"}
{"timestamp":"2025-09-01T20:27:29.230194Z","level":"info","event":"Setting wave functions to eigenvectors of Hamiltonian","chan":"stdout","logger":"task"}
{"timestamp":"2025-09-01T20:27:54.523308Z","level":"info","event":"","chan":"stdout","logger":"task"}
{"timestamp":"2025-09-01T20:27:54.524372Z","level":"info","event":"# Ionic positions in cartesian coordinates:","chan":"stdout","logger":"task"}
{"timestamp":"2025-09-01T20:27:54.525093Z","level":"info","event":"ion V   0.000297000000000   0.000206000000000  40.527760999999998 1","chan":"stdout","logger":"task"}
{"timestamp":"2025-09-01T20:27:54.525429Z","level":"info","event":"ion V  -2.867357999999999   4.115779999999999  33.076448999999997 1","chan":"stdout","logger":"task"}
{"timestamp":"2025-09-01T20:27:54.525841Z","level":"info","event":"ion V   0.000297000000000   0.000206000000000  51.335754999999992 1","chan":"stdout","logger":"task"}
{"timestamp":"2025-09-01T20:27:54.526351Z","level":"info","event":"ion V  -2.867357999999999   4.115779999999999  43.884442999999983 1","chan":"stdout","logger":"task"}
{"timestamp":"2025-09-01T20:27:54.526740Z","level":"info","event":"ion V   2.087893999999999   6.178677999999999  29.394374999999997 1","chan":"stdout","logger":"task"}
{"timestamp":"2025-09-01T20:27:54.527328Z","level":"info","event":"ion V   2.923822000000000   2.052782000000000  35.129578999999993 1","chan":"stdout","logger":"task"}
{"timestamp":"2025-09-01T20:27:54.527748Z","level":"info","event":"ion V   0.000297000000000   0.000206000000000  62.143747999999995 1","chan":"stdout","logger":"task"}
{"timestamp":"2025-09-01T20:27:54.528378Z","level":"info","event":"ion V  -2.867357999999999   4.115779999999999  54.692435999999994 1","chan":"stdout","logger":"task"}
{"timestamp":"2025-09-01T20:27:54.528969Z","level":"info","event":"ion V   2.087893999999999   6.178677999999999  40.202368999999983 1","chan":"stdout","logger":"task"}
{"timestamp":"2025-09-01T20:27:54.529369Z","level":"info","event":"ion V   2.923822000000000   2.052782000000000  45.937573000000000 1","chan":"stdout","logger":"task"}
{"timestamp":"2025-09-01T20:27:54.529690Z","level":"info","event":"ion O  -0.406594999999999   3.963560999999999  29.978448999999998 1","chan":"stdout","logger":"task"}
{"timestamp":"2025-09-01T20:27:54.530047Z","level":"info","event":"ion O  -3.080845999999999   7.974219999999999  22.816246999999997 1","chan":"stdout","logger":"task"}
{"timestamp":"2025-09-01T20:27:54.532215Z","level":"info","event":"ion O   8.092021000000001   0.256846000000000  30.899395999999992 1","chan":"stdout","logger":"task"}
{"timestamp":"2025-09-01T20:27:54.532557Z","level":"info","event":"ion O   5.417259000000000   4.267018999999999  23.737565000000000 1","chan":"stdout","logger":"task"}
{"timestamp":"2025-09-01T20:27:54.534077Z","level":"info","event":"ion O  -0.406594999999999   3.963560999999999  40.786441999999994 1","chan":"stdout","logger":"task"}
{"timestamp":"2025-09-01T20:27:54.535871Z","level":"info","event":"ion O   4.781548000000001   4.427946999999999  29.221173999999994 1","chan":"stdout","logger":"task"}
{"timestamp":"2025-09-01T20:27:54.536288Z","level":"info","event":"ion O   2.336115000000000   7.929795999999998  21.273168999999999 1","chan":"stdout","logger":"task"}
{"timestamp":"2025-09-01T20:27:54.536648Z","level":"info","event":"ion O  -3.080845999999999   7.974219999999999  33.624240999999998 1","chan":"stdout","logger":"task"}
{"timestamp":"2025-09-01T20:27:54.539366Z","level":"info","event":"ion O   8.092021000000001   0.256846000000000  41.707389999999990 1","chan":"stdout","logger":"task"}
{"timestamp":"2025-09-01T20:27:54.540077Z","level":"info","event":"ion O   2.674004000000000   0.301442000000000  43.251495999999996 1","chan":"stdout","logger":"task"}
{"timestamp":"2025-09-01T20:27:54.541585Z","level":"info","event":"ion O   0.229520000000000   3.803208999999999  35.304034999999999 1","chan":"stdout","logger":"task"}
{"timestamp":"2025-09-01T20:27:54.543105Z","level":"info","event":"ion O   5.417259000000000   4.267018999999999  34.545558999999997 1","chan":"stdout","logger":"task"}
{"timestamp":"2025-09-01T20:27:54.543577Z","level":"info","event":"ion O  -0.406594999999999   3.963560999999999  51.594435999999995 1","chan":"stdout","logger":"task"}
{"timestamp":"2025-09-01T20:27:54.545450Z","level":"info","event":"ion O   4.781548000000001   4.427946999999999  40.029167999999999 1","chan":"stdout","logger":"task"}
{"timestamp":"2025-09-01T20:27:54.546009Z","level":"info","event":"ion O   2.336115000000000   7.929795999999998  32.081162999999989 1","chan":"stdout","logger":"task"}
{"timestamp":"2025-09-01T20:27:54.547828Z","level":"info","event":"ion O  -3.080845999999999   7.974219999999999  44.432234000000001 1","chan":"stdout","logger":"task"}
{"timestamp":"2025-09-01T20:27:54.548347Z","level":"info","event":"ion O   8.092021000000001   0.256846000000000  52.515383999999983 1","chan":"stdout","logger":"task"}
{"timestamp":"2025-09-01T20:27:54.548639Z","level":"info","event":"ion O   2.674004000000000   0.301442000000000  54.059489999999990 1","chan":"stdout","logger":"task"}
{"timestamp":"2025-09-01T20:27:54.549079Z","level":"info","event":"ion O   0.229520000000000   3.803208999999999  46.112028999999993 1","chan":"stdout","logger":"task"}
{"timestamp":"2025-09-01T20:27:54.549866Z","level":"info","event":"ion O   5.417259000000000   4.267018999999999  45.353552999999991 1","chan":"stdout","logger":"task"}
{"timestamp":"2025-09-01T20:27:54.550228Z","level":"info","event":"","chan":"stdout","logger":"task"}
{"timestamp":"2025-09-01T20:27:54.550788Z","level":"info","event":"# Forces in Cartesian coordinates:","chan":"stdout","logger":"task"}
{"timestamp":"2025-09-01T20:27:54.551245Z","level":"info","event":"force V   0.018268760526194   0.037983640379991   0.047344652206058 1","chan":"stdout","logger":"task"}
{"timestamp":"2025-09-01T20:27:54.551895Z","level":"info","event":"force V   0.017390662956968   0.040537468345821   0.056479085379463 1","chan":"stdout","logger":"task"}
{"timestamp":"2025-09-01T20:27:54.552506Z","level":"info","event":"force V   0.000902806860451   0.001698361131076  -0.001837922562093 1","chan":"stdout","logger":"task"}
{"timestamp":"2025-09-01T20:27:54.552802Z","level":"info","event":"force V   0.001618594337744   0.001789671428819  -0.001805019880751 1","chan":"stdout","logger":"task"}
{"timestamp":"2025-09-01T20:27:54.553433Z","level":"info","event":"force V  -0.017644264912664  -0.011608258106464  -0.003985297442986 1","chan":"stdout","logger":"task"}
{"timestamp":"2025-09-01T20:27:54.556891Z","level":"info","event":"force V  -0.000195936669771  -0.031873441118923   0.072795346338847 1","chan":"stdout","logger":"task"}
{"timestamp":"2025-09-01T20:27:54.557431Z","level":"info","event":"force V  -0.016679925073844  -0.035236407589274  -0.052382132094401 1","chan":"stdout","logger":"task"}
{"timestamp":"2025-09-01T20:27:54.558332Z","level":"info","event":"force V  -0.015038605978330  -0.037952423464678  -0.060665185342962 1","chan":"stdout","logger":"task"}
{"timestamp":"2025-09-01T20:27:54.558813Z","level":"info","event":"force V  -0.001122457098060   0.029373026693188  -0.070171649840092 1","chan":"stdout","logger":"task"}
{"timestamp":"2025-09-01T20:27:54.559462Z","level":"info","event":"force V   0.016997680319692   0.011573158140884   0.006282475245287 1","chan":"stdout","logger":"task"}
{"timestamp":"2025-09-01T20:27:54.560119Z","level":"info","event":"force O  -0.001048127545375   0.032663812341504   0.017601334201190 1","chan":"stdout","logger":"task"}
{"timestamp":"2025-09-01T20:27:54.560669Z","level":"info","event":"force O  -0.034830415225345   0.056511921306868  -0.019290650794297 1","chan":"stdout","logger":"task"}
{"timestamp":"2025-09-01T20:27:54.561746Z","level":"info","event":"force O   0.033127085997100   0.032638503449118  -0.045746549586206 1","chan":"stdout","logger":"task"}
{"timestamp":"2025-09-01T20:27:54.562363Z","level":"info","event":"force O   0.033185040378408   0.019765033906032  -0.048965820862462 1","chan":"stdout","logger":"task"}
{"timestamp":"2025-09-01T20:27:54.563276Z","level":"info","event":"force O   0.010940850939765  -0.003877500126480   0.001530370682013 1","chan":"stdout","logger":"task"}
{"timestamp":"2025-09-01T20:27:54.563718Z","level":"info","event":"force O   0.018567482274851  -0.004551149581739   0.023228348837348 1","chan":"stdout","logger":"task"}
{"timestamp":"2025-09-01T20:27:54.564132Z","level":"info","event":"force O   0.056841554059631   0.002351833007647   0.064400690016258 1","chan":"stdout","logger":"task"}
{"timestamp":"2025-09-01T20:27:54.564637Z","level":"info","event":"force O   0.000069432168840  -0.001112631315883  -0.018700334741009 1","chan":"stdout","logger":"task"}
{"timestamp":"2025-09-01T20:27:54.565002Z","level":"info","event":"force O  -0.000120696956350   0.001204475161495   0.018588416134532 1","chan":"stdout","logger":"task"}
{"timestamp":"2025-09-01T20:27:54.565321Z","level":"info","event":"force O  -0.024935441741296  -0.006634963303325  -0.027267495313957 1","chan":"stdout","logger":"task"}
{"timestamp":"2025-09-01T20:27:54.565641Z","level":"info","event":"force O  -0.022267142933334  -0.011239121863287  -0.031429359437408 1","chan":"stdout","logger":"task"}
{"timestamp":"2025-09-01T20:27:54.566001Z","level":"info","event":"force O  -0.010167776570678   0.004144528844377  -0.002351699346926 1","chan":"stdout","logger":"task"}
{"timestamp":"2025-09-01T20:27:54.566304Z","level":"info","event":"force O  -0.033304596587705  -0.019141840239400   0.048662968880026 1","chan":"stdout","logger":"task"}
{"timestamp":"2025-09-01T20:27:54.566593Z","level":"info","event":"force O   0.022034579757680   0.011631305200161   0.030812832139660 1","chan":"stdout","logger":"task"}
{"timestamp":"2025-09-01T20:27:54.567685Z","level":"info","event":"force O   0.024973870810038   0.006660506685399   0.027590310837632 1","chan":"stdout","logger":"task"}
{"timestamp":"2025-09-01T20:27:54.567993Z","level":"info","event":"force O  -0.033382643183204  -0.032481131401298   0.045725256835945 1","chan":"stdout","logger":"task"}
{"timestamp":"2025-09-01T20:27:54.568286Z","level":"info","event":"force O   0.034752692963416  -0.056486032126460   0.019528514332791 1","chan":"stdout","logger":"task"}
{"timestamp":"2025-09-01T20:27:54.568671Z","level":"info","event":"force O  -0.056565014698758  -0.002425125364498  -0.064296107694296 1","chan":"stdout","logger":"task"}
{"timestamp":"2025-09-01T20:27:54.569089Z","level":"info","event":"force O  -0.018689144516481   0.004932228340704  -0.023438541486132 1","chan":"stdout","logger":"task"}
{"timestamp":"2025-09-01T20:27:54.569336Z","level":"info","event":"force O   0.001579261991703  -0.032222431797336  -0.018237309284815 1","chan":"stdout","logger":"task"}
{"timestamp":"2025-09-01T20:27:54.569593Z","level":"info","event":"","chan":"stdout","logger":"task"}
{"timestamp":"2025-09-01T20:27:54.569874Z","level":"info","event":"# Energy components:","chan":"stdout","logger":"task"}
{"timestamp":"2025-09-01T20:27:54.570139Z","level":"info","event":"   A_diel =       -0.2798606846772591","chan":"stdout","logger":"task"}
{"timestamp":"2025-09-01T20:27:54.570529Z","level":"info","event":"   Eewald =     1419.7625376429457447","chan":"stdout","logger":"task"}
{"timestamp":"2025-09-01T20:27:54.570861Z","level":"info","event":"       EH =     2315.5549126484593216","chan":"stdout","logger":"task"}
{"timestamp":"2025-09-01T20:27:54.571168Z","level":"info","event":"     Eloc =    -4992.7949166312910165","chan":"stdout","logger":"task"}
{"timestamp":"2025-09-01T20:27:54.571827Z","level":"info","event":"      Enl =       45.4696193242019717","chan":"stdout","logger":"task"}
{"timestamp":"2025-09-01T20:27:54.572132Z","level":"info","event":"      Exc =     -167.6464497341775939","chan":"stdout","logger":"task"}
{"timestamp":"2025-09-01T20:27:54.572430Z","level":"info","event":" Exc_core =        9.4982509039208995","chan":"stdout","logger":"task"}
{"timestamp":"2025-09-01T20:27:54.572748Z","level":"info","event":"       KE =      335.9550141007139246","chan":"stdout","logger":"task"}
{"timestamp":"2025-09-01T20:27:54.573075Z","level":"info","event":"  MuShift =       -0.0057643424089930","chan":"stdout","logger":"task"}
{"timestamp":"2025-09-01T20:27:54.573316Z","level":"info","event":"-------------------------------------","chan":"stdout","logger":"task"}
{"timestamp":"2025-09-01T20:27:54.573639Z","level":"info","event":"     Etot =    -1034.4866567723126991","chan":"stdout","logger":"task"}
{"timestamp":"2025-09-01T20:27:54.574189Z","level":"info","event":"       TS =        0.1450059024866822","chan":"stdout","logger":"task"}
{"timestamp":"2025-09-01T20:27:54.574416Z","level":"info","event":"-------------------------------------","chan":"stdout","logger":"task"}
{"timestamp":"2025-09-01T20:27:54.575025Z","level":"info","event":"        F =    -1034.6316626747993723","chan":"stdout","logger":"task"}
{"timestamp":"2025-09-01T20:27:54.575254Z","level":"info","event":"","chan":"stdout","logger":"task"}
{"timestamp":"2025-09-01T20:27:54.575450Z","level":"info","event":"IonicMinimize: Iter:   0  F: -1034.631662674799372  |grad|_K:  3.053e-02  t[s]:    381.57","chan":"stdout","logger":"task"}
{"timestamp":"2025-09-01T20:27:55.084659Z","level":"info","event":"IonicMinimize: None of the convergence criteria satisfied after 0 iterations.","chan":"stdout","logger":"task"}
{"timestamp":"2025-09-01T20:27:55.085020Z","level":"info","event":"","chan":"stdout","logger":"task"}
{"timestamp":"2025-09-01T20:27:55.085243Z","level":"info","event":"#--- Lowdin population analysis ---","chan":"stdout","logger":"task"}
{"timestamp":"2025-09-01T20:27:55.085531Z","level":"info","event":"# oxidation-state V +1.487 +1.480 +1.347 +1.323 +1.320 +1.420 +1.510 +1.485 +1.417 +1.319","chan":"stdout","logger":"task"}
{"timestamp":"2025-09-01T20:27:55.085972Z","level":"info","event":"# oxidation-state O -0.692 -0.644 -0.787 -0.780 -0.637 -0.561 -0.795 -0.667 -0.667 -0.561 -0.521 -0.637 -0.780 -0.521 -0.561 -0.787 -0.644 -0.796 -0.561 -0.692","chan":"stdout","logger":"task"}
{"timestamp":"2025-09-01T20:27:55.086284Z","level":"info","event":"","chan":"stdout","logger":"task"}
{"timestamp":"2025-09-01T20:27:55.086569Z","level":"info","event":"","chan":"stdout","logger":"task"}
{"timestamp":"2025-09-01T20:27:55.102386Z","level":"info","event":"Dumping 'fillings' ... done","chan":"stdout","logger":"task"}
{"timestamp":"2025-09-01T20:27:55.313703Z","level":"info","event":"Dumping 'wfns' ... done","chan":"stdout","logger":"task"}
{"timestamp":"2025-09-01T20:27:55.357656Z","level":"info","event":"Dumping 'fluidState' ... done","chan":"stdout","logger":"task"}
{"timestamp":"2025-09-01T20:27:55.367459Z","level":"info","event":"Dumping 'eigenvals' ... done","chan":"stdout","logger":"task"}
{"timestamp":"2025-09-01T20:27:55.437546Z","level":"info","event":"End date and time: Mon Sep  1 20:27:55 2025  (Duration: 0-0:06:22.42)","chan":"stdout","logger":"task"}
{"timestamp":"2025-09-01T20:27:55.437947Z","level":"info","event":"Done!","chan":"stdout","logger":"task"}
{"timestamp":"2025-09-01T20:27:55.535028","level":"info","event":"Done. Returned value was: mp-755394-111-3","logger":"airflow.task.operators.airflow.providers.standard.decorators.python._PythonDecoratedOperator"}
{"timestamp":"2025-09-01T20:27:55.543162","level":"info","event":"Pushing xcom","ti":"RuntimeTaskInstance(id=UUID('019906c4-80c9-738f-b33e-2c37f07f8b17'), task_id='run_gcdft', dag_id='MP-pymatgen-jDFTx', run_id='manual__2025-09-01T19:32:45.363362+00:00', try_number=1, map_index=-1, hostname='41a82e7e5a55', context_carrier={}, task=<Task(_PythonDecoratedOperator): run_gcdft>, bundle_instance=LocalDagBundle(name=dags-folder), max_tries=0, start_date=datetime.datetime(2025, 9, 1, 19, 33, 7, 281713, tzinfo=datetime.timezone.utc), end_date=None, state=<TaskInstanceState.RUNNING: 'running'>, is_mapped=False, rendered_map_index=None, log_url='http://localhost:8080/dags/MP-pymatgen-jDFTx/runs/manual__2025-09-01T19%3A32%3A45.363362%2B00%3A00/tasks/run_gcdft?try_number=1')","logger":"task"}
