{"timestamp":"2025-09-01T18:09:50.780187","level":"info","event":"DAG bundles loaded: dags-folder","logger":"airflow.dag_processing.bundles.manager.DagBundlesManager"}
{"timestamp":"2025-09-01T18:09:50.781168","level":"info","event":"Filling up the DagBag from /opt/airflow/dags/my_dag.py","logger":"airflow.models.dagbag.DagBag"}
{"timestamp":"2025-09-01T18:09:56.489928Z","level":"info","event":"","chan":"stdout","logger":"task"}
{"timestamp":"2025-09-01T18:09:56.490373Z","level":"info","event":"*************** JDFTx 1.7.0  ***************","chan":"stdout","logger":"task"}
{"timestamp":"2025-09-01T18:09:56.490923Z","level":"info","event":"","chan":"stdout","logger":"task"}
{"timestamp":"2025-09-01T18:09:56.499396Z","level":"info","event":"Start date and time: Mon Sep  1 18:09:56 2025","chan":"stdout","logger":"task"}
{"timestamp":"2025-09-01T18:09:56.499844Z","level":"info","event":"Executable jdftx with command-line: -i /opt/airflow/output/gc_dft/mp-755394-111-3_-0.1.in","chan":"stdout","logger":"task"}
{"timestamp":"2025-09-01T18:09:56.500187Z","level":"info","event":"Running on hosts (process indices):  4c196f876d10 (0)","chan":"stdout","logger":"task"}
{"timestamp":"2025-09-01T18:09:56.500537Z","level":"info","event":"Divided in process groups (process indices):  0 (0)","chan":"stdout","logger":"task"}
{"timestamp":"2025-09-01T18:09:56.500932Z","level":"info","event":"Resource initialization completed at t[s]:      0.00","chan":"stdout","logger":"task"}
{"timestamp":"2025-09-01T18:09:56.501455Z","level":"info","event":"Run totals: 1 processes, 8 threads, 0 GPUs","chan":"stdout","logger":"task"}
{"timestamp":"2025-09-01T18:09:56.501789Z","level":"info","event":"","chan":"stdout","logger":"task"}
{"timestamp":"2025-09-01T18:09:56.502090Z","level":"info","event":"","chan":"stdout","logger":"task"}
{"timestamp":"2025-09-01T18:09:56.502351Z","level":"info","event":"Input parsed successfully to the following command list (including defaults):","chan":"stdout","logger":"task"}
{"timestamp":"2025-09-01T18:09:56.502563Z","level":"info","event":"","chan":"stdout","logger":"task"}
{"timestamp":"2025-09-01T18:09:56.502879Z","level":"info","event":"basis kpoint-dependent","chan":"stdout","logger":"task"}
{"timestamp":"2025-09-01T18:09:56.503250Z","level":"info","event":"coords-type Cartesian","chan":"stdout","logger":"task"}
{"timestamp":"2025-09-01T18:09:56.508193Z","level":"info","event":"core-overlap-check vector","chan":"stdout","logger":"task"}
{"timestamp":"2025-09-01T18:09:56.508668Z","level":"info","event":"coulomb-interaction Periodic","chan":"stdout","logger":"task"}
{"timestamp":"2025-09-01T18:09:56.509027Z","level":"info","event":"davidson-band-ratio 1.1","chan":"stdout","logger":"task"}
{"timestamp":"2025-09-01T18:09:56.509375Z","level":"info","event":"dump End State","chan":"stdout","logger":"task"}
{"timestamp":"2025-09-01T18:09:56.509686Z","level":"info","event":"dump-name $VAR","chan":"stdout","logger":"task"}
{"timestamp":"2025-09-01T18:09:56.510069Z","level":"info","event":"elec-cutoff 5","chan":"stdout","logger":"task"}
{"timestamp":"2025-09-01T18:09:56.510384Z","level":"info","event":"elec-eigen-algo Davidson","chan":"stdout","logger":"task"}
{"timestamp":"2025-09-01T18:09:56.510707Z","level":"info","event":"elec-ex-corr gga-PBE","chan":"stdout","logger":"task"}
{"timestamp":"2025-09-01T18:09:56.510939Z","level":"info","event":"elec-initial-charge -0.100000","chan":"stdout","logger":"task"}
{"timestamp":"2025-09-01T18:09:56.511318Z","level":"info","event":"elec-smearing Fermi 0.00734","chan":"stdout","logger":"task"}
{"timestamp":"2025-09-01T18:09:56.511640Z","level":"info","event":"electronic-minimize  \\","chan":"stdout","logger":"task"}
{"timestamp":"2025-09-01T18:09:56.511943Z","level":"info","event":"\tdirUpdateScheme      FletcherReeves \\","chan":"stdout","logger":"task"}
{"timestamp":"2025-09-01T18:09:56.512266Z","level":"info","event":"\tlinminMethod         DirUpdateRecommended \\","chan":"stdout","logger":"task"}
{"timestamp":"2025-09-01T18:09:56.512617Z","level":"info","event":"\tnIterations          15 \\","chan":"stdout","logger":"task"}
{"timestamp":"2025-09-01T18:09:56.512906Z","level":"info","event":"\thistory              15 \\","chan":"stdout","logger":"task"}
{"timestamp":"2025-09-01T18:09:56.513160Z","level":"info","event":"\tknormThreshold       0 \\","chan":"stdout","logger":"task"}
{"timestamp":"2025-09-01T18:09:56.513518Z","level":"info","event":"\tmaxThreshold         no \\","chan":"stdout","logger":"task"}
{"timestamp":"2025-09-01T18:09:56.513927Z","level":"info","event":"\tenergyDiffThreshold  5e-05 \\","chan":"stdout","logger":"task"}
{"timestamp":"2025-09-01T18:09:56.514518Z","level":"info","event":"\tnEnergyDiff          2 \\","chan":"stdout","logger":"task"}
{"timestamp":"2025-09-01T18:09:56.514872Z","level":"info","event":"\tconvergeAll          no \\","chan":"stdout","logger":"task"}
{"timestamp":"2025-09-01T18:09:56.515119Z","level":"info","event":"\talphaTstart          1 \\","chan":"stdout","logger":"task"}
{"timestamp":"2025-09-01T18:09:56.515402Z","level":"info","event":"\talphaTmin            1e-10 \\","chan":"stdout","logger":"task"}
{"timestamp":"2025-09-01T18:09:56.515729Z","level":"info","event":"\tupdateTestStepSize   yes \\","chan":"stdout","logger":"task"}
{"timestamp":"2025-09-01T18:09:56.516189Z","level":"info","event":"\talphaTreduceFactor   0.1 \\","chan":"stdout","logger":"task"}
{"timestamp":"2025-09-01T18:09:56.516467Z","level":"info","event":"\talphaTincreaseFactor 3 \\","chan":"stdout","logger":"task"}
{"timestamp":"2025-09-01T18:09:56.516812Z","level":"info","event":"\tnAlphaAdjustMax      3 \\","chan":"stdout","logger":"task"}
{"timestamp":"2025-09-01T18:09:56.517139Z","level":"info","event":"\twolfeEnergy          0.0001 \\","chan":"stdout","logger":"task"}
{"timestamp":"2025-09-01T18:09:56.517609Z","level":"info","event":"\twolfeGradient        0.9 \\","chan":"stdout","logger":"task"}
{"timestamp":"2025-09-01T18:09:56.517944Z","level":"info","event":"\tabortOnFailedStep    no \\","chan":"stdout","logger":"task"}
{"timestamp":"2025-09-01T18:09:56.518236Z","level":"info","event":"\tfdTest               no","chan":"stdout","logger":"task"}
{"timestamp":"2025-09-01T18:09:56.518540Z","level":"info","event":"exchange-regularization WignerSeitzTruncated","chan":"stdout","logger":"task"}
{"timestamp":"2025-09-01T18:09:56.518763Z","level":"info","event":"fluid LinearPCM 298.000000 1.013250","chan":"stdout","logger":"task"}
{"timestamp":"2025-09-01T18:09:56.518968Z","level":"info","event":"fluid-anion F- 1 MeanFieldLJ \\","chan":"stdout","logger":"task"}
{"timestamp":"2025-09-01T18:09:56.519228Z","level":"info","event":"\tepsBulk 1 \\","chan":"stdout","logger":"task"}
{"timestamp":"2025-09-01T18:09:56.519675Z","level":"info","event":"\tpMol 0 \\","chan":"stdout","logger":"task"}
{"timestamp":"2025-09-01T18:09:56.519939Z","level":"info","event":"\tepsInf 1 \\","chan":"stdout","logger":"task"}
{"timestamp":"2025-09-01T18:09:56.520225Z","level":"info","event":"\tPvap 0 \\","chan":"stdout","logger":"task"}
{"timestamp":"2025-09-01T18:09:56.520587Z","level":"info","event":"\tsigmaBulk 0 \\","chan":"stdout","logger":"task"}
{"timestamp":"2025-09-01T18:09:56.520956Z","level":"info","event":"\tRvdw 2.24877 \\","chan":"stdout","logger":"task"}
{"timestamp":"2025-09-01T18:09:56.521348Z","level":"info","event":"\tRes 0 \\","chan":"stdout","logger":"task"}
{"timestamp":"2025-09-01T18:09:56.521683Z","level":"info","event":"\ttauNuc 343133","chan":"stdout","logger":"task"}
{"timestamp":"2025-09-01T18:09:56.522048Z","level":"info","event":"fluid-cation Na+ 1 MeanFieldLJ \\","chan":"stdout","logger":"task"}
{"timestamp":"2025-09-01T18:09:56.522333Z","level":"info","event":"\tepsBulk 1 \\","chan":"stdout","logger":"task"}
{"timestamp":"2025-09-01T18:09:56.522651Z","level":"info","event":"\tpMol 0 \\","chan":"stdout","logger":"task"}
{"timestamp":"2025-09-01T18:09:56.523007Z","level":"info","event":"\tepsInf 1 \\","chan":"stdout","logger":"task"}
{"timestamp":"2025-09-01T18:09:56.523326Z","level":"info","event":"\tPvap 0 \\","chan":"stdout","logger":"task"}
{"timestamp":"2025-09-01T18:09:56.523644Z","level":"info","event":"\tsigmaBulk 0 \\","chan":"stdout","logger":"task"}
{"timestamp":"2025-09-01T18:09:56.524107Z","level":"info","event":"\tRvdw 2.19208 \\","chan":"stdout","logger":"task"}
{"timestamp":"2025-09-01T18:09:56.524451Z","level":"info","event":"\tRes 0 \\","chan":"stdout","logger":"task"}
{"timestamp":"2025-09-01T18:09:56.524821Z","level":"info","event":"\ttauNuc 343133","chan":"stdout","logger":"task"}
{"timestamp":"2025-09-01T18:09:56.525115Z","level":"info","event":"fluid-ex-corr lda-TF lda-PZ","chan":"stdout","logger":"task"}
{"timestamp":"2025-09-01T18:09:56.525481Z","level":"info","event":"fluid-gummel-loop 10 1.000000e-05","chan":"stdout","logger":"task"}
{"timestamp":"2025-09-01T18:09:56.526145Z","level":"info","event":"fluid-minimize  \\","chan":"stdout","logger":"task"}
{"timestamp":"2025-09-01T18:09:56.532264Z","level":"info","event":"\tdirUpdateScheme      PolakRibiere \\","chan":"stdout","logger":"task"}
{"timestamp":"2025-09-01T18:09:56.532744Z","level":"info","event":"\tlinminMethod         DirUpdateRecommended \\","chan":"stdout","logger":"task"}
{"timestamp":"2025-09-01T18:09:56.533075Z","level":"info","event":"\tnIterations          400 \\","chan":"stdout","logger":"task"}
{"timestamp":"2025-09-01T18:09:56.533394Z","level":"info","event":"\thistory              15 \\","chan":"stdout","logger":"task"}
{"timestamp":"2025-09-01T18:09:56.533827Z","level":"info","event":"\tknormThreshold       1e-11 \\","chan":"stdout","logger":"task"}
{"timestamp":"2025-09-01T18:09:56.534268Z","level":"info","event":"\tmaxThreshold         no \\","chan":"stdout","logger":"task"}
{"timestamp":"2025-09-01T18:09:56.534667Z","level":"info","event":"\tenergyDiffThreshold  0 \\","chan":"stdout","logger":"task"}
{"timestamp":"2025-09-01T18:09:56.535020Z","level":"info","event":"\tnEnergyDiff          2 \\","chan":"stdout","logger":"task"}
{"timestamp":"2025-09-01T18:09:56.535760Z","level":"info","event":"\tconvergeAll          no \\","chan":"stdout","logger":"task"}
{"timestamp":"2025-09-01T18:09:56.540136Z","level":"info","event":"\talphaTstart          1 \\","chan":"stdout","logger":"task"}
{"timestamp":"2025-09-01T18:09:56.540629Z","level":"info","event":"\talphaTmin            1e-10 \\","chan":"stdout","logger":"task"}
{"timestamp":"2025-09-01T18:09:56.543669Z","level":"info","event":"\tupdateTestStepSize   yes \\","chan":"stdout","logger":"task"}
{"timestamp":"2025-09-01T18:09:56.544292Z","level":"info","event":"\talphaTreduceFactor   0.1 \\","chan":"stdout","logger":"task"}
{"timestamp":"2025-09-01T18:09:56.544816Z","level":"info","event":"\talphaTincreaseFactor 3 \\","chan":"stdout","logger":"task"}
{"timestamp":"2025-09-01T18:09:56.545246Z","level":"info","event":"\tnAlphaAdjustMax      6 \\","chan":"stdout","logger":"task"}
{"timestamp":"2025-09-01T18:09:56.545660Z","level":"info","event":"\twolfeEnergy          0.0001 \\","chan":"stdout","logger":"task"}
{"timestamp":"2025-09-01T18:09:56.546188Z","level":"info","event":"\twolfeGradient        0.9 \\","chan":"stdout","logger":"task"}
{"timestamp":"2025-09-01T18:09:56.546471Z","level":"info","event":"\tabortOnFailedStep    no \\","chan":"stdout","logger":"task"}
{"timestamp":"2025-09-01T18:09:56.546772Z","level":"info","event":"\tfdTest               no","chan":"stdout","logger":"task"}
{"timestamp":"2025-09-01T18:09:56.547040Z","level":"info","event":"fluid-solvent H2O 55.338 ScalarEOS \\","chan":"stdout","logger":"task"}
{"timestamp":"2025-09-01T18:09:56.547391Z","level":"info","event":"\tepsBulk 78.4 \\","chan":"stdout","logger":"task"}
{"timestamp":"2025-09-01T18:09:56.547748Z","level":"info","event":"\tpMol 0.92466 \\","chan":"stdout","logger":"task"}
{"timestamp":"2025-09-01T18:09:56.548583Z","level":"info","event":"\tepsInf 1.77 \\","chan":"stdout","logger":"task"}
{"timestamp":"2025-09-01T18:09:56.548994Z","level":"info","event":"\tPvap 1.06736e-10 \\","chan":"stdout","logger":"task"}
{"timestamp":"2025-09-01T18:09:56.549440Z","level":"info","event":"\tsigmaBulk 4.62e-05 \\","chan":"stdout","logger":"task"}
{"timestamp":"2025-09-01T18:09:56.549779Z","level":"info","event":"\tRvdw 2.61727 \\","chan":"stdout","logger":"task"}
{"timestamp":"2025-09-01T18:09:56.550191Z","level":"info","event":"\tRes 1.42 \\","chan":"stdout","logger":"task"}
{"timestamp":"2025-09-01T18:09:56.550666Z","level":"info","event":"\ttauNuc 343133 \\","chan":"stdout","logger":"task"}
{"timestamp":"2025-09-01T18:09:56.550976Z","level":"info","event":"\tpoleEl 15 7 1","chan":"stdout","logger":"task"}
{"timestamp":"2025-09-01T18:09:56.551314Z","level":"info","event":"forces-output-coords Positions","chan":"stdout","logger":"task"}
{"timestamp":"2025-09-01T18:09:56.551721Z","level":"info","event":"initial-state $VAR","chan":"stdout","logger":"task"}
{"timestamp":"2025-09-01T18:09:56.552171Z","level":"info","event":"ion V   0.000297000000000   0.000206000000000  40.527760999999998 1","chan":"stdout","logger":"task"}
{"timestamp":"2025-09-01T18:09:56.552536Z","level":"info","event":"ion V  -2.867357999999999   4.115779999999999  33.076448999999997 1","chan":"stdout","logger":"task"}
{"timestamp":"2025-09-01T18:09:56.552997Z","level":"info","event":"ion V   0.000297000000000   0.000206000000000  51.335754999999992 1","chan":"stdout","logger":"task"}
{"timestamp":"2025-09-01T18:09:56.553402Z","level":"info","event":"ion V  -2.867357999999999   4.115779999999999  43.884442999999983 1","chan":"stdout","logger":"task"}
{"timestamp":"2025-09-01T18:09:56.553706Z","level":"info","event":"ion V   2.087893999999999   6.178677999999999  29.394374999999997 1","chan":"stdout","logger":"task"}
{"timestamp":"2025-09-01T18:09:56.554091Z","level":"info","event":"ion V   2.923822000000000   2.052782000000000  35.129578999999993 1","chan":"stdout","logger":"task"}
{"timestamp":"2025-09-01T18:09:56.554481Z","level":"info","event":"ion V   0.000297000000000   0.000206000000000  62.143747999999995 1","chan":"stdout","logger":"task"}
{"timestamp":"2025-09-01T18:09:56.555816Z","level":"info","event":"ion V  -2.867357999999999   4.115779999999999  54.692435999999994 1","chan":"stdout","logger":"task"}
{"timestamp":"2025-09-01T18:09:56.556357Z","level":"info","event":"ion V   2.087893999999999   6.178677999999999  40.202368999999983 1","chan":"stdout","logger":"task"}
{"timestamp":"2025-09-01T18:09:56.556738Z","level":"info","event":"ion V   2.923822000000000   2.052782000000000  45.937573000000000 1","chan":"stdout","logger":"task"}
{"timestamp":"2025-09-01T18:09:56.557656Z","level":"info","event":"ion O  -0.406594999999999   3.963560999999999  29.978448999999998 1","chan":"stdout","logger":"task"}
{"timestamp":"2025-09-01T18:09:56.559210Z","level":"info","event":"ion O  -3.080845999999999   7.974219999999999  22.816246999999997 1","chan":"stdout","logger":"task"}
{"timestamp":"2025-09-01T18:09:56.559723Z","level":"info","event":"ion O   8.092021000000001   0.256846000000000  30.899395999999992 1","chan":"stdout","logger":"task"}
{"timestamp":"2025-09-01T18:09:56.560561Z","level":"info","event":"ion O   5.417259000000000   4.267018999999999  23.737565000000000 1","chan":"stdout","logger":"task"}
{"timestamp":"2025-09-01T18:09:56.561255Z","level":"info","event":"ion O  -0.406594999999999   3.963560999999999  40.786441999999994 1","chan":"stdout","logger":"task"}
{"timestamp":"2025-09-01T18:09:56.561591Z","level":"info","event":"ion O   4.781548000000001   4.427946999999999  29.221173999999994 1","chan":"stdout","logger":"task"}
{"timestamp":"2025-09-01T18:09:56.563343Z","level":"info","event":"ion O   2.336115000000000   7.929795999999998  21.273168999999999 1","chan":"stdout","logger":"task"}
{"timestamp":"2025-09-01T18:09:56.563845Z","level":"info","event":"ion O  -3.080845999999999   7.974219999999999  33.624240999999998 1","chan":"stdout","logger":"task"}
{"timestamp":"2025-09-01T18:09:56.564252Z","level":"info","event":"ion O   8.092021000000001   0.256846000000000  41.707389999999990 1","chan":"stdout","logger":"task"}
{"timestamp":"2025-09-01T18:09:56.565279Z","level":"info","event":"ion O   2.674004000000000   0.301442000000000  43.251495999999996 1","chan":"stdout","logger":"task"}
{"timestamp":"2025-09-01T18:09:56.565636Z","level":"info","event":"ion O   0.229520000000000   3.803208999999999  35.304034999999999 1","chan":"stdout","logger":"task"}
{"timestamp":"2025-09-01T18:09:56.565952Z","level":"info","event":"ion O   5.417259000000000   4.267018999999999  34.545558999999997 1","chan":"stdout","logger":"task"}
{"timestamp":"2025-09-01T18:09:56.566261Z","level":"info","event":"ion O  -0.406594999999999   3.963560999999999  51.594435999999995 1","chan":"stdout","logger":"task"}
{"timestamp":"2025-09-01T18:09:56.572915Z","level":"info","event":"ion O   4.781548000000001   4.427946999999999  40.029167999999999 1","chan":"stdout","logger":"task"}
{"timestamp":"2025-09-01T18:09:56.573876Z","level":"info","event":"ion O   2.336115000000000   7.929795999999998  32.081162999999989 1","chan":"stdout","logger":"task"}
{"timestamp":"2025-09-01T18:09:56.574265Z","level":"info","event":"ion O  -3.080845999999999   7.974219999999999  44.432234000000001 1","chan":"stdout","logger":"task"}
{"timestamp":"2025-09-01T18:09:56.574630Z","level":"info","event":"ion O   8.092021000000001   0.256846000000000  52.515383999999983 1","chan":"stdout","logger":"task"}
{"timestamp":"2025-09-01T18:09:56.574981Z","level":"info","event":"ion O   2.674004000000000   0.301442000000000  54.059489999999990 1","chan":"stdout","logger":"task"}
{"timestamp":"2025-09-01T18:09:56.575329Z","level":"info","event":"ion O   0.229520000000000   3.803208999999999  46.112028999999993 1","chan":"stdout","logger":"task"}
{"timestamp":"2025-09-01T18:09:56.576142Z","level":"info","event":"ion O   5.417259000000000   4.267018999999999  45.353552999999991 1","chan":"stdout","logger":"task"}
{"timestamp":"2025-09-01T18:09:56.577827Z","level":"info","event":"ion-species GBRV/$ID_pbe.uspp","chan":"stdout","logger":"task"}
{"timestamp":"2025-09-01T18:09:56.578861Z","level":"info","event":"ion-width Ecut","chan":"stdout","logger":"task"}
{"timestamp":"2025-09-01T18:09:56.579278Z","level":"info","event":"ionic-minimize  \\","chan":"stdout","logger":"task"}
{"timestamp":"2025-09-01T18:09:56.579747Z","level":"info","event":"\tdirUpdateScheme      L-BFGS \\","chan":"stdout","logger":"task"}
{"timestamp":"2025-09-01T18:09:56.580109Z","level":"info","event":"\tlinminMethod         DirUpdateRecommended \\","chan":"stdout","logger":"task"}
{"timestamp":"2025-09-01T18:09:56.580522Z","level":"info","event":"\tnIterations          0 \\","chan":"stdout","logger":"task"}
{"timestamp":"2025-09-01T18:09:56.580806Z","level":"info","event":"\thistory              15 \\","chan":"stdout","logger":"task"}
{"timestamp":"2025-09-01T18:09:56.581334Z","level":"info","event":"\tknormThreshold       0.0001 \\","chan":"stdout","logger":"task"}
{"timestamp":"2025-09-01T18:09:56.581819Z","level":"info","event":"\tmaxThreshold         no \\","chan":"stdout","logger":"task"}
{"timestamp":"2025-09-01T18:09:56.582207Z","level":"info","event":"\tenergyDiffThreshold  1e-06 \\","chan":"stdout","logger":"task"}
{"timestamp":"2025-09-01T18:09:56.582669Z","level":"info","event":"\tnEnergyDiff          2 \\","chan":"stdout","logger":"task"}
{"timestamp":"2025-09-01T18:09:56.583131Z","level":"info","event":"\tconvergeAll          no \\","chan":"stdout","logger":"task"}
{"timestamp":"2025-09-01T18:09:56.583899Z","level":"info","event":"\talphaTstart          1 \\","chan":"stdout","logger":"task"}
{"timestamp":"2025-09-01T18:09:56.584448Z","level":"info","event":"\talphaTmin            1e-10 \\","chan":"stdout","logger":"task"}
{"timestamp":"2025-09-01T18:09:56.584823Z","level":"info","event":"\tupdateTestStepSize   yes \\","chan":"stdout","logger":"task"}
{"timestamp":"2025-09-01T18:09:56.585174Z","level":"info","event":"\talphaTreduceFactor   0.1 \\","chan":"stdout","logger":"task"}
{"timestamp":"2025-09-01T18:09:56.585548Z","level":"info","event":"\talphaTincreaseFactor 3 \\","chan":"stdout","logger":"task"}
{"timestamp":"2025-09-01T18:09:56.585947Z","level":"info","event":"\tnAlphaAdjustMax      3 \\","chan":"stdout","logger":"task"}
{"timestamp":"2025-09-01T18:09:56.586365Z","level":"info","event":"\twolfeEnergy          0.0001 \\","chan":"stdout","logger":"task"}
{"timestamp":"2025-09-01T18:09:56.586670Z","level":"info","event":"\twolfeGradient        0.9 \\","chan":"stdout","logger":"task"}
{"timestamp":"2025-09-01T18:09:56.592137Z","level":"info","event":"\tabortOnFailedStep    no \\","chan":"stdout","logger":"task"}
{"timestamp":"2025-09-01T18:09:56.593393Z","level":"info","event":"\tfdTest               no","chan":"stdout","logger":"task"}
{"timestamp":"2025-09-01T18:09:56.594172Z","level":"info","event":"kpoint   0.500000000000   0.500000000000   0.500000000000  1.00000000000000","chan":"stdout","logger":"task"}
{"timestamp":"2025-09-01T18:09:56.594556Z","level":"info","event":"kpoint-folding 1 1 1","chan":"stdout","logger":"task"}
{"timestamp":"2025-09-01T18:09:56.594881Z","level":"info","event":"latt-move-scale 1 1 1","chan":"stdout","logger":"task"}
{"timestamp":"2025-09-01T18:09:56.595210Z","level":"info","event":"latt-scale 1 1 1","chan":"stdout","logger":"task"}
{"timestamp":"2025-09-01T18:09:56.595734Z","level":"info","event":"lattice  \\","chan":"stdout","logger":"task"}
{"timestamp":"2025-09-01T18:09:56.596122Z","level":"info","event":"\t  10.749050000000000   -5.737742000000000    0.000000000000000  \\","chan":"stdout","logger":"task"}
{"timestamp":"2025-09-01T18:09:56.596434Z","level":"info","event":"\t   0.000000000000000    8.231180999999999    0.000000000000000  \\","chan":"stdout","logger":"task"}
{"timestamp":"2025-09-01T18:09:56.597087Z","level":"info","event":"\t -12.434680000000000  -14.908436999999999   97.271944000000005","chan":"stdout","logger":"task"}
{"timestamp":"2025-09-01T18:09:56.600501Z","level":"info","event":"lattice-minimize  \\","chan":"stdout","logger":"task"}
{"timestamp":"2025-09-01T18:09:56.601010Z","level":"info","event":"\tdirUpdateScheme      L-BFGS \\","chan":"stdout","logger":"task"}
{"timestamp":"2025-09-01T18:09:56.601356Z","level":"info","event":"\tlinminMethod         DirUpdateRecommended \\","chan":"stdout","logger":"task"}
{"timestamp":"2025-09-01T18:09:56.601686Z","level":"info","event":"\tnIterations          0 \\","chan":"stdout","logger":"task"}
{"timestamp":"2025-09-01T18:09:56.602007Z","level":"info","event":"\thistory              15 \\","chan":"stdout","logger":"task"}
{"timestamp":"2025-09-01T18:09:56.603557Z","level":"info","event":"\tknormThreshold       0 \\","chan":"stdout","logger":"task"}
{"timestamp":"2025-09-01T18:09:56.603903Z","level":"info","event":"\tmaxThreshold         no \\","chan":"stdout","logger":"task"}
{"timestamp":"2025-09-01T18:09:56.604900Z","level":"info","event":"\tenergyDiffThreshold  1e-06 \\","chan":"stdout","logger":"task"}
{"timestamp":"2025-09-01T18:09:56.605457Z","level":"info","event":"\tnEnergyDiff          2 \\","chan":"stdout","logger":"task"}
{"timestamp":"2025-09-01T18:09:56.605859Z","level":"info","event":"\tconvergeAll          no \\","chan":"stdout","logger":"task"}
{"timestamp":"2025-09-01T18:09:56.606308Z","level":"info","event":"\talphaTstart          1 \\","chan":"stdout","logger":"task"}
{"timestamp":"2025-09-01T18:09:56.606668Z","level":"info","event":"\talphaTmin            1e-10 \\","chan":"stdout","logger":"task"}
{"timestamp":"2025-09-01T18:09:56.606988Z","level":"info","event":"\tupdateTestStepSize   yes \\","chan":"stdout","logger":"task"}
{"timestamp":"2025-09-01T18:09:56.607447Z","level":"info","event":"\talphaTreduceFactor   0.1 \\","chan":"stdout","logger":"task"}
{"timestamp":"2025-09-01T18:09:56.613133Z","level":"info","event":"\talphaTincreaseFactor 3 \\","chan":"stdout","logger":"task"}
{"timestamp":"2025-09-01T18:09:56.613727Z","level":"info","event":"\tnAlphaAdjustMax      3 \\","chan":"stdout","logger":"task"}
{"timestamp":"2025-09-01T18:09:56.614852Z","level":"info","event":"\twolfeEnergy          0.0001 \\","chan":"stdout","logger":"task"}
{"timestamp":"2025-09-01T18:09:56.615191Z","level":"info","event":"\twolfeGradient        0.9 \\","chan":"stdout","logger":"task"}
{"timestamp":"2025-09-01T18:09:56.615593Z","level":"info","event":"\tabortOnFailedStep    no \\","chan":"stdout","logger":"task"}
{"timestamp":"2025-09-01T18:09:56.615961Z","level":"info","event":"\tfdTest               no","chan":"stdout","logger":"task"}
{"timestamp":"2025-09-01T18:09:56.616336Z","level":"info","event":"lcao-params 15 5e-05 0.00734","chan":"stdout","logger":"task"}
{"timestamp":"2025-09-01T18:09:56.616726Z","level":"info","event":"pcm-variant CANDLE","chan":"stdout","logger":"task"}
{"timestamp":"2025-09-01T18:09:56.617420Z","level":"info","event":"perturb-minimize  \\","chan":"stdout","logger":"task"}
{"timestamp":"2025-09-01T18:09:56.617806Z","level":"info","event":"\tnIterations            0 \\","chan":"stdout","logger":"task"}
{"timestamp":"2025-09-01T18:09:56.618174Z","level":"info","event":"\talgorithm              MINRES \\","chan":"stdout","logger":"task"}
{"timestamp":"2025-09-01T18:09:56.618947Z","level":"info","event":"\tresidualTol            0.0001 \\","chan":"stdout","logger":"task"}
{"timestamp":"2025-09-01T18:09:56.619591Z","level":"info","event":"\tresidualDiffThreshold  0.0001 \\","chan":"stdout","logger":"task"}
{"timestamp":"2025-09-01T18:09:56.624229Z","level":"info","event":"\tCGBypass               no \\","chan":"stdout","logger":"task"}
{"timestamp":"2025-09-01T18:09:56.624921Z","level":"info","event":"\trecomputeResidual      no","chan":"stdout","logger":"task"}
{"timestamp":"2025-09-01T18:09:56.625262Z","level":"info","event":"spintype no-spin","chan":"stdout","logger":"task"}
{"timestamp":"2025-09-01T18:09:56.626767Z","level":"info","event":"subspace-rotation-factor 1 yes","chan":"stdout","logger":"task"}
{"timestamp":"2025-09-01T18:09:56.627344Z","level":"info","event":"symmetries automatic","chan":"stdout","logger":"task"}
{"timestamp":"2025-09-01T18:09:56.627821Z","level":"info","event":"symmetry-threshold 0.0001","chan":"stdout","logger":"task"}
{"timestamp":"2025-09-01T18:09:56.628380Z","level":"info","event":"","chan":"stdout","logger":"task"}
{"timestamp":"2025-09-01T18:09:56.628808Z","level":"info","event":"","chan":"stdout","logger":"task"}
{"timestamp":"2025-09-01T18:09:56.629244Z","level":"info","event":"","chan":"stdout","logger":"task"}
{"timestamp":"2025-09-01T18:09:56.629693Z","level":"info","event":"---------- Setting up symmetries ----------","chan":"stdout","logger":"task"}
{"timestamp":"2025-09-01T18:09:56.630011Z","level":"info","event":"","chan":"stdout","logger":"task"}
{"timestamp":"2025-09-01T18:09:56.630369Z","level":"info","event":"Non-trivial transmission matrix:","chan":"stdout","logger":"task"}
{"timestamp":"2025-09-01T18:09:56.630795Z","level":"info","event":"[   1   0   3  ]","chan":"stdout","logger":"task"}
{"timestamp":"2025-09-01T18:09:56.636158Z","level":"info","event":"[   0   1   3  ]","chan":"stdout","logger":"task"}
{"timestamp":"2025-09-01T18:09:56.637624Z","level":"info","event":"[   0   0   1  ]","chan":"stdout","logger":"task"}
{"timestamp":"2025-09-01T18:09:56.638282Z","level":"info","event":"with reduced lattice vectors:","chan":"stdout","logger":"task"}
{"timestamp":"2025-09-01T18:09:56.638699Z","level":"info","event":"[     10.749050     -5.737742     15.033924  ]","chan":"stdout","logger":"task"}
{"timestamp":"2025-09-01T18:09:56.639431Z","level":"info","event":"[      0.000000      8.231181     24.693543  ]","chan":"stdout","logger":"task"}
{"timestamp":"2025-09-01T18:09:56.639890Z","level":"info","event":"[    -12.434680    -14.908437     15.242593  ]","chan":"stdout","logger":"task"}
{"timestamp":"2025-09-01T18:09:56.640337Z","level":"info","event":"","chan":"stdout","logger":"task"}
{"timestamp":"2025-09-01T18:09:56.640930Z","level":"info","event":"Found 2 point-group symmetries of the bravais lattice","chan":"stdout","logger":"task"}
{"timestamp":"2025-09-01T18:09:56.641742Z","level":"info","event":"Found 1 space-group symmetries with basis","chan":"stdout","logger":"task"}
{"timestamp":"2025-09-01T18:09:56.642194Z","level":"info","event":"Applied RMS atom displacement 0 bohrs to make symmetries exact.","chan":"stdout","logger":"task"}
{"timestamp":"2025-09-01T18:09:56.931216Z","level":"info","event":"","chan":"stdout","logger":"task"}
{"timestamp":"2025-09-01T18:09:56.933196Z","level":"info","event":"---------- Initializing the Grid ----------","chan":"stdout","logger":"task"}
{"timestamp":"2025-09-01T18:09:56.933611Z","level":"info","event":"R =","chan":"stdout","logger":"task"}
{"timestamp":"2025-09-01T18:09:56.934792Z","level":"info","event":"[      10.7491     -5.73774            0  ]","chan":"stdout","logger":"task"}
{"timestamp":"2025-09-01T18:09:56.935286Z","level":"info","event":"[            0      8.23118            0  ]","chan":"stdout","logger":"task"}
{"timestamp":"2025-09-01T18:09:56.935938Z","level":"info","event":"[     -12.4347     -14.9084      97.2719  ]","chan":"stdout","logger":"task"}
{"timestamp":"2025-09-01T18:09:56.937068Z","level":"info","event":"unit cell volume = 8606.37","chan":"stdout","logger":"task"}
{"timestamp":"2025-09-01T18:09:56.937700Z","level":"info","event":"G =","chan":"stdout","logger":"task"}
{"timestamp":"2025-09-01T18:09:56.940172Z","level":"info","event":"[   0.584534   0.407463         -0  ]","chan":"stdout","logger":"task"}
{"timestamp":"2025-09-01T18:09:56.940718Z","level":"info","event":"[         -0   0.763339          0  ]","chan":"stdout","logger":"task"}
{"timestamp":"2025-09-01T18:09:56.941107Z","level":"info","event":"[  0.0747234   0.169081   0.064594  ]","chan":"stdout","logger":"task"}
{"timestamp":"2025-09-01T18:09:56.942616Z","level":"info","event":"Minimum fftbox size, Smin = [  36  40  196  ]","chan":"stdout","logger":"task"}
{"timestamp":"2025-09-01T18:09:56.943330Z","level":"info","event":"Chosen fftbox size, S = [  36  40  196  ]","chan":"stdout","logger":"task"}
{"timestamp":"2025-09-01T18:09:56.943689Z","level":"info","event":"","chan":"stdout","logger":"task"}
{"timestamp":"2025-09-01T18:09:56.944820Z","level":"info","event":"---------- Exchange Correlation functional ----------","chan":"stdout","logger":"task"}
{"timestamp":"2025-09-01T18:09:56.945475Z","level":"info","event":"Initalized PBE GGA exchange.","chan":"stdout","logger":"task"}
{"timestamp":"2025-09-01T18:09:56.951803Z","level":"info","event":"Initalized PBE GGA correlation.","chan":"stdout","logger":"task"}
{"timestamp":"2025-09-01T18:09:56.953956Z","level":"info","event":"","chan":"stdout","logger":"task"}
{"timestamp":"2025-09-01T18:09:56.960775Z","level":"info","event":"---------- Setting up pseudopotentials ----------","chan":"stdout","logger":"task"}
{"timestamp":"2025-09-01T18:09:56.961402Z","level":"info","event":"Width of ionic core gaussian charges (only for fluid interactions / plotting) set to 0.794767","chan":"stdout","logger":"task"}
{"timestamp":"2025-09-01T18:09:56.961870Z","level":"info","event":"","chan":"stdout","logger":"task"}
{"timestamp":"2025-09-01T18:09:56.962255Z","level":"info","event":"Reading pseudopotential file '/opt/jdftx-master/build/pseudopotentials/GBRV/v_pbe.uspp':","chan":"stdout","logger":"task"}
{"timestamp":"2025-09-01T18:09:56.962623Z","level":"info","event":"  Title: V.  Created by USPP 7.3.6 on 31-3-15","chan":"stdout","logger":"task"}
{"timestamp":"2025-09-01T18:09:56.968184Z","level":"info","event":"  Reference state energy: -72.228583.  13 valence electrons in orbitals:","chan":"stdout","logger":"task"}
{"timestamp":"2025-09-01T18:09:56.969663Z","level":"info","event":"    |300>  occupation: 2  eigenvalue: -2.581040","chan":"stdout","logger":"task"}
{"timestamp":"2025-09-01T18:09:56.970053Z","level":"info","event":"    |310>  occupation: 6  eigenvalue: -1.618497","chan":"stdout","logger":"task"}
{"timestamp":"2025-09-01T18:09:56.971074Z","level":"info","event":"    |400>  occupation: 2  eigenvalue: -0.172800","chan":"stdout","logger":"task"}
{"timestamp":"2025-09-01T18:09:56.972211Z","level":"info","event":"    |320>  occupation: 3  eigenvalue: -0.189802","chan":"stdout","logger":"task"}
{"timestamp":"2025-09-01T18:09:56.973269Z","level":"info","event":"  lMax: 2  lLocal: 3  QijEcut: 6","chan":"stdout","logger":"task"}
{"timestamp":"2025-09-01T18:09:56.973823Z","level":"info","event":"  6 projectors sampled on a log grid with 593 points:","chan":"stdout","logger":"task"}
{"timestamp":"2025-09-01T18:09:56.974159Z","level":"info","event":"    l: 0  eig: -2.581041  rCut: 1.5","chan":"stdout","logger":"task"}
{"timestamp":"2025-09-01T18:09:56.974656Z","level":"info","event":"    l: 0  eig: -0.172801  rCut: 1.5","chan":"stdout","logger":"task"}
{"timestamp":"2025-09-01T18:09:56.975545Z","level":"info","event":"    l: 1  eig: -1.618497  rCut: 1.6","chan":"stdout","logger":"task"}
{"timestamp":"2025-09-01T18:09:56.975989Z","level":"info","event":"    l: 1  eig: 0.150000  rCut: 1.6","chan":"stdout","logger":"task"}
{"timestamp":"2025-09-01T18:09:56.976969Z","level":"info","event":"    l: 2  eig: -0.189802  rCut: 1.7","chan":"stdout","logger":"task"}
{"timestamp":"2025-09-01T18:09:56.977411Z","level":"info","event":"    l: 2  eig: 0.150000  rCut: 1.7","chan":"stdout","logger":"task"}
{"timestamp":"2025-09-01T18:09:56.978001Z","level":"info","event":"  Partial core density with radius 0.8","chan":"stdout","logger":"task"}
{"timestamp":"2025-09-01T18:09:56.978485Z","level":"info","event":"  Transforming core density to a uniform radial grid of dG=0.02 with 2181 points.","chan":"stdout","logger":"task"}
{"timestamp":"2025-09-01T18:09:56.979032Z","level":"info","event":"  Transforming local potential to a uniform radial grid of dG=0.02 with 2181 points.","chan":"stdout","logger":"task"}
{"timestamp":"2025-09-01T18:09:56.979520Z","level":"info","event":"  Transforming nonlocal projectors to a uniform radial grid of dG=0.02 with 219 points.","chan":"stdout","logger":"task"}
{"timestamp":"2025-09-01T18:09:56.980754Z","level":"info","event":"  Transforming density augmentations to a uniform radial grid of dG=0.02 with 2181 points.","chan":"stdout","logger":"task"}
{"timestamp":"2025-09-01T18:09:56.981136Z","level":"info","event":"  Transforming atomic orbitals to a uniform radial grid of dG=0.02 with 219 points.","chan":"stdout","logger":"task"}
{"timestamp":"2025-09-01T18:09:57.182383Z","level":"info","event":"  Core radius for overlap checks: 1.80 bohrs.","chan":"stdout","logger":"task"}
{"timestamp":"2025-09-01T18:09:57.184139Z","level":"info","event":"","chan":"stdout","logger":"task"}
{"timestamp":"2025-09-01T18:09:57.185468Z","level":"info","event":"Reading pseudopotential file '/opt/jdftx-master/build/pseudopotentials/GBRV/o_pbe.uspp':","chan":"stdout","logger":"task"}
{"timestamp":"2025-09-01T18:09:57.185890Z","level":"info","event":"  Title: O.  Created by USPP 7.3.6 on 3-2-2014","chan":"stdout","logger":"task"}
{"timestamp":"2025-09-01T18:09:57.186260Z","level":"info","event":"  Reference state energy: -15.894388.  6 valence electrons in orbitals:","chan":"stdout","logger":"task"}
{"timestamp":"2025-09-01T18:09:57.187212Z","level":"info","event":"    |200>  occupation: 2  eigenvalue: -0.878823","chan":"stdout","logger":"task"}
{"timestamp":"2025-09-01T18:09:57.187661Z","level":"info","event":"    |210>  occupation: 4  eigenvalue: -0.332131","chan":"stdout","logger":"task"}
{"timestamp":"2025-09-01T18:09:57.188088Z","level":"info","event":"  lMax: 2  lLocal: 2  QijEcut: 6","chan":"stdout","logger":"task"}
{"timestamp":"2025-09-01T18:09:57.188601Z","level":"info","event":"  5 projectors sampled on a log grid with 511 points:","chan":"stdout","logger":"task"}
{"timestamp":"2025-09-01T18:09:57.188952Z","level":"info","event":"    l: 0  eig: -0.878823  rCut: 1.25","chan":"stdout","logger":"task"}
{"timestamp":"2025-09-01T18:09:57.189353Z","level":"info","event":"    l: 0  eig: 0.000000  rCut: 1.25","chan":"stdout","logger":"task"}
{"timestamp":"2025-09-01T18:09:57.189682Z","level":"info","event":"    l: 1  eig: -0.332132  rCut: 1.25","chan":"stdout","logger":"task"}
{"timestamp":"2025-09-01T18:09:57.189991Z","level":"info","event":"    l: 1  eig: 0.000000  rCut: 1.25","chan":"stdout","logger":"task"}
{"timestamp":"2025-09-01T18:09:57.190330Z","level":"info","event":"    l: 2  eig: 1.000000  rCut: 1.25","chan":"stdout","logger":"task"}
{"timestamp":"2025-09-01T18:09:57.190696Z","level":"info","event":"  Partial core density with radius 0.7","chan":"stdout","logger":"task"}
{"timestamp":"2025-09-01T18:09:57.191052Z","level":"info","event":"  Transforming core density to a uniform radial grid of dG=0.02 with 2181 points.","chan":"stdout","logger":"task"}
{"timestamp":"2025-09-01T18:09:57.191494Z","level":"info","event":"  Transforming local potential to a uniform radial grid of dG=0.02 with 2181 points.","chan":"stdout","logger":"task"}
{"timestamp":"2025-09-01T18:09:57.191801Z","level":"info","event":"  Transforming nonlocal projectors to a uniform radial grid of dG=0.02 with 219 points.","chan":"stdout","logger":"task"}
{"timestamp":"2025-09-01T18:09:57.192114Z","level":"info","event":"  Transforming density augmentations to a uniform radial grid of dG=0.02 with 2181 points.","chan":"stdout","logger":"task"}
{"timestamp":"2025-09-01T18:09:57.193011Z","level":"info","event":"  Transforming atomic orbitals to a uniform radial grid of dG=0.02 with 219 points.","chan":"stdout","logger":"task"}
{"timestamp":"2025-09-01T18:09:57.197389Z","level":"info","event":"  Core radius for overlap checks: 1.25 bohrs.","chan":"stdout","logger":"task"}
{"timestamp":"2025-09-01T18:09:57.197879Z","level":"info","event":"","chan":"stdout","logger":"task"}
{"timestamp":"2025-09-01T18:09:57.198222Z","level":"info","event":"Initialized 2 species with 30 total atoms.","chan":"stdout","logger":"task"}
{"timestamp":"2025-09-01T18:09:57.198522Z","level":"info","event":"","chan":"stdout","logger":"task"}
{"timestamp":"2025-09-01T18:09:57.198873Z","level":"info","event":"Folded 1 k-points by 1x1x1 to 1 k-points.","chan":"stdout","logger":"task"}
{"timestamp":"2025-09-01T18:09:57.199191Z","level":"info","event":"","chan":"stdout","logger":"task"}
{"timestamp":"2025-09-01T18:09:57.199458Z","level":"info","event":"---------- Setting up k-points, bands, fillings ----------","chan":"stdout","logger":"task"}
{"timestamp":"2025-09-01T18:09:57.199779Z","level":"info","event":"No reducable k-points.","chan":"stdout","logger":"task"}
{"timestamp":"2025-09-01T18:09:57.200145Z","level":"info","event":"Computing the number of bands and number of electrons","chan":"stdout","logger":"task"}
{"timestamp":"2025-09-01T18:09:57.200469Z","level":"info","event":"Calculating initial fillings.","chan":"stdout","logger":"task"}
{"timestamp":"2025-09-01T18:09:57.200833Z","level":"info","event":"nElectrons: 249.900000   nBands: 180   nStates: 1","chan":"stdout","logger":"task"}
{"timestamp":"2025-09-01T18:09:57.203848Z","level":"info","event":"","chan":"stdout","logger":"task"}
{"timestamp":"2025-09-01T18:09:57.204422Z","level":"info","event":"----- Setting up reduced wavefunction bases (one per k-point) -----","chan":"stdout","logger":"task"}
{"timestamp":"2025-09-01T18:09:57.204858Z","level":"info","event":"average nbasis = 4602.000 , ideal nbasis = 4595.882","chan":"stdout","logger":"task"}
{"timestamp":"2025-09-01T18:09:59.673251Z","level":"info","event":"","chan":"stdout","logger":"task"}
{"timestamp":"2025-09-01T18:09:59.673733Z","level":"info","event":"Initializing DFT-D2 calculator for fluid / solvation:","chan":"stdout","logger":"task"}
{"timestamp":"2025-09-01T18:09:59.675109Z","level":"info","event":"\t V:  C6:  187.33 Eh-a0^6  R0: 2.952 a0","chan":"stdout","logger":"task"}
{"timestamp":"2025-09-01T18:09:59.675857Z","level":"info","event":"\t O:  C6:   12.14 Eh-a0^6  R0: 2.536 a0","chan":"stdout","logger":"task"}
{"timestamp":"2025-09-01T18:09:59.676328Z","level":"info","event":"","chan":"stdout","logger":"task"}
{"timestamp":"2025-09-01T18:09:59.677015Z","level":"info","event":"---------- Setting up ewald sum ----------","chan":"stdout","logger":"task"}
{"timestamp":"2025-09-01T18:09:59.677421Z","level":"info","event":"Optimum gaussian width for ewald sums = 4.560127 bohr.","chan":"stdout","logger":"task"}
{"timestamp":"2025-09-01T18:09:59.678475Z","level":"info","event":"Real space sum over 1365 unit cells with max indices [  6  7  3  ]","chan":"stdout","logger":"task"}
{"timestamp":"2025-09-01T18:09:59.679199Z","level":"info","event":"Reciprocal space sum over 15525 terms with max indices [  7  7  34  ]","chan":"stdout","logger":"task"}
{"timestamp":"2025-09-01T18:09:59.680126Z","level":"info","event":"","chan":"stdout","logger":"task"}
{"timestamp":"2025-09-01T18:09:59.680569Z","level":"info","event":"---------- Allocating electronic variables ----------","chan":"stdout","logger":"task"}
{"timestamp":"2025-09-01T18:10:24.357515Z","level":"info","event":"Initializing wave functions:  linear combination of atomic orbitals","chan":"stdout","logger":"task"}
{"timestamp":"2025-09-01T18:10:24.358051Z","level":"info","event":"V pseudo-atom occupations:   s ( 2 0 )  p ( 6 )  d ( 5 )","chan":"stdout","logger":"task"}
{"timestamp":"2025-09-01T18:10:24.358429Z","level":"info","event":"O pseudo-atom occupations:   s ( 2 )  p ( 4 )","chan":"stdout","logger":"task"}
{"timestamp":"2025-09-01T18:10:24.358933Z","level":"info","event":"\tFillingsUpdate:  mu: +0.398166675  nElectrons: 249.900000","chan":"stdout","logger":"task"}
{"timestamp":"2025-09-01T18:10:24.359335Z","level":"info","event":"LCAOMinimize: Iter:   0  F: -882.8334398416801605  |grad|_K:  6.644e-02  alpha:  1.000e+00","chan":"stdout","logger":"task"}
{"timestamp":"2025-09-01T18:10:37.561434Z","level":"info","event":"\tFillingsUpdate:  mu: -0.042263256  nElectrons: 249.900000","chan":"stdout","logger":"task"}
{"timestamp":"2025-09-01T18:10:37.562071Z","level":"info","event":"LCAOMinimize: Iter:   1  F: -926.2952702057478973  |grad|_K:  1.255e-01  alpha:  6.389e-01  linmin:  1.462e-02  cgtest: -4.512e-01  t[s]:     41.07","chan":"stdout","logger":"task"}
{"timestamp":"2025-09-01T18:10:48.700572Z","level":"info","event":"LCAOMinimize: \tStep increased F by 1.285853e+01, reducing alpha to 1.383574e-02.","chan":"stdout","logger":"task"}
{"timestamp":"2025-09-01T18:10:56.612235Z","level":"info","event":"\tFillingsUpdate:  mu: -0.036129781  nElectrons: 249.900000","chan":"stdout","logger":"task"}
{"timestamp":"2025-09-01T18:10:56.612731Z","level":"info","event":"LCAOMinimize: Iter:   2  F: -928.1324470224328707  |grad|_K:  5.048e-02  alpha:  1.384e-02  linmin: -2.971e-04  cgtest:  2.229e+00  t[s]:     60.12","chan":"stdout","logger":"task"}
{"timestamp":"2025-09-01T18:10:56.613093Z","level":"info","event":"LCAOMinimize: Encountered beta<0, resetting CG.","chan":"stdout","logger":"task"}
{"timestamp":"2025-09-01T18:11:08.084730Z","level":"info","event":"\tFillingsUpdate:  mu: -0.039964730  nElectrons: 249.900000","chan":"stdout","logger":"task"}
{"timestamp":"2025-09-01T18:11:08.085474Z","level":"info","event":"LCAOMinimize: Iter:   3  F: -930.2702857443958919  |grad|_K:  9.578e-02  alpha:  2.117e-02  linmin: -1.367e-01  cgtest:  4.669e-01  t[s]:     71.60","chan":"stdout","logger":"task"}
{"timestamp":"2025-09-01T18:11:18.378813Z","level":"info","event":"\tFillingsUpdate:  mu: -0.021606875  nElectrons: 249.900000","chan":"stdout","logger":"task"}
{"timestamp":"2025-09-01T18:11:18.379387Z","level":"info","event":"LCAOMinimize: Iter:   4  F: -942.0473313958383415  |grad|_K:  2.678e-02  alpha:  1.990e-02  linmin: -1.426e-01  cgtest:  9.139e-01  t[s]:     81.89","chan":"stdout","logger":"task"}
{"timestamp":"2025-09-01T18:11:18.379722Z","level":"info","event":"LCAOMinimize: Encountered beta<0, resetting CG.","chan":"stdout","logger":"task"}
{"timestamp":"2025-09-01T18:11:21.061304Z","level":"info","event":"LCAOMinimize: \tPredicted alpha/alphaT>3.000000, increasing alphaT to 5.971448e-02.","chan":"stdout","logger":"task"}
{"timestamp":"2025-09-01T18:11:23.739502Z","level":"info","event":"LCAOMinimize: \tWrong curvature in test step, increasing alphaT to 1.791434e-01.","chan":"stdout","logger":"task"}
{"timestamp":"2025-09-01T18:11:31.474478Z","level":"info","event":"\tFillingsUpdate:  mu: -0.037852053  nElectrons: 249.900000","chan":"stdout","logger":"task"}
{"timestamp":"2025-09-01T18:11:31.474943Z","level":"info","event":"LCAOMinimize: Iter:   5  F: -943.7431737495733159  |grad|_K:  2.584e-02  alpha: -1.433e-01  linmin: -9.369e-02  cgtest:  7.239e-01  t[s]:     94.98","chan":"stdout","logger":"task"}
{"timestamp":"2025-09-01T18:11:43.084605Z","level":"info","event":"\tFillingsUpdate:  mu: -0.093387958  nElectrons: 249.900000","chan":"stdout","logger":"task"}
{"timestamp":"2025-09-01T18:11:43.085196Z","level":"info","event":"LCAOMinimize: Iter:   6  F: -945.5846528870509928  |grad|_K:  2.090e-02  alpha:  8.379e-02  linmin: -1.520e-01  cgtest:  6.593e-01  t[s]:    106.60","chan":"stdout","logger":"task"}
{"timestamp":"2025-09-01T18:11:45.823040Z","level":"info","event":"LCAOMinimize: \tWrong curvature in test step, increasing alphaT to 2.513558e-01.","chan":"stdout","logger":"task"}
{"timestamp":"2025-09-01T18:11:53.744746Z","level":"info","event":"\tFillingsUpdate:  mu: -0.127818951  nElectrons: 249.900000","chan":"stdout","logger":"task"}
{"timestamp":"2025-09-01T18:11:53.745392Z","level":"info","event":"LCAOMinimize: Iter:   7  F: -947.2290334388127349  |grad|_K:  2.248e-02  alpha: -2.606e-01  linmin: -1.661e-01  cgtest:  7.886e-01  t[s]:    117.26","chan":"stdout","logger":"task"}
{"timestamp":"2025-09-01T18:12:04.473613Z","level":"info","event":"\tFillingsUpdate:  mu: -0.165662493  nElectrons: 249.900000","chan":"stdout","logger":"task"}
{"timestamp":"2025-09-01T18:12:04.474023Z","level":"info","event":"LCAOMinimize: Iter:   8  F: -949.6452580903198850  |grad|_K:  2.498e-02  alpha:  8.324e-02  linmin: -1.960e-01  cgtest:  7.174e-01  t[s]:    127.98","chan":"stdout","logger":"task"}
{"timestamp":"2025-09-01T18:12:07.184969Z","level":"info","event":"LCAOMinimize: \tWrong curvature in test step, increasing alphaT to 2.497205e-01.","chan":"stdout","logger":"task"}
{"timestamp":"2025-09-01T18:12:15.441715Z","level":"info","event":"\tFillingsUpdate:  mu: -0.170591591  nElectrons: 249.900000","chan":"stdout","logger":"task"}
{"timestamp":"2025-09-01T18:12:15.442312Z","level":"info","event":"LCAOMinimize: Iter:   9  F: -953.3458489866615082  |grad|_K:  2.491e-02  alpha: -1.792e-01  linmin: -2.126e-01  cgtest:  6.968e-01  t[s]:    138.95","chan":"stdout","logger":"task"}
{"timestamp":"2025-09-01T18:12:26.972075Z","level":"info","event":"\tFillingsUpdate:  mu: -0.115551563  nElectrons: 249.900000","chan":"stdout","logger":"task"}
{"timestamp":"2025-09-01T18:12:26.973000Z","level":"info","event":"LCAOMinimize: Iter:  10  F: -957.0540105386085088  |grad|_K:  2.244e-02  alpha:  1.165e-01  linmin: -1.344e-01  cgtest:  4.492e-01  t[s]:    150.48","chan":"stdout","logger":"task"}
{"timestamp":"2025-09-01T18:12:37.595776Z","level":"info","event":"\tFillingsUpdate:  mu: -0.067210481  nElectrons: 249.900000","chan":"stdout","logger":"task"}
{"timestamp":"2025-09-01T18:12:37.597336Z","level":"info","event":"LCAOMinimize: Iter:  11  F: -958.6384709977992316  |grad|_K:  1.408e-02  alpha:  6.540e-02  linmin: -2.706e-01  cgtest:  4.955e-01  t[s]:    161.11","chan":"stdout","logger":"task"}
{"timestamp":"2025-09-01T18:12:48.774462Z","level":"info","event":"LCAOMinimize: \tStep increased F by 4.778609e-01, reducing alpha to 1.886313e-02.","chan":"stdout","logger":"task"}
{"timestamp":"2025-09-01T18:12:57.272757Z","level":"info","event":"\tFillingsUpdate:  mu: -0.061300969  nElectrons: 249.900000","chan":"stdout","logger":"task"}
{"timestamp":"2025-09-01T18:12:57.273245Z","level":"info","event":"LCAOMinimize: Iter:  12  F: -958.7851591177017099  |grad|_K:  1.242e-02  alpha:  1.886e-02  linmin: -3.691e-01  cgtest:  9.654e-01  t[s]:    180.78","chan":"stdout","logger":"task"}
{"timestamp":"2025-09-01T18:12:57.273693Z","level":"info","event":"LCAOMinimize: Encountered beta<0, resetting CG.","chan":"stdout","logger":"task"}
{"timestamp":"2025-09-01T18:12:59.961635Z","level":"info","event":"LCAOMinimize: \tPredicted alpha/alphaT>3.000000, increasing alphaT to 5.658940e-02.","chan":"stdout","logger":"task"}
{"timestamp":"2025-09-01T18:13:02.651253Z","level":"info","event":"LCAOMinimize: \tPredicted alpha/alphaT>3.000000, increasing alphaT to 1.697682e-01.","chan":"stdout","logger":"task"}
{"timestamp":"2025-09-01T18:13:13.066717Z","level":"info","event":"\tFillingsUpdate:  mu: -0.032696653  nElectrons: 249.900000","chan":"stdout","logger":"task"}
{"timestamp":"2025-09-01T18:13:13.067125Z","level":"info","event":"LCAOMinimize: Iter:  13  F: -959.2030574528755551  |grad|_K:  7.717e-03  alpha:  1.588e-01  linmin:  1.008e-01  cgtest: -2.229e-01  t[s]:    196.58","chan":"stdout","logger":"task"}
{"timestamp":"2025-09-01T18:13:23.757089Z","level":"info","event":"\tFillingsUpdate:  mu: -0.013608097  nElectrons: 249.900000","chan":"stdout","logger":"task"}
{"timestamp":"2025-09-01T18:13:23.757513Z","level":"info","event":"LCAOMinimize: Iter:  14  F: -959.2400381044327560  |grad|_K:  6.266e-03  alpha:  5.662e-02  linmin: -2.333e-04  cgtest:  6.730e-01  t[s]:    207.27","chan":"stdout","logger":"task"}
{"timestamp":"2025-09-01T18:13:34.957629Z","level":"info","event":"\tFillingsUpdate:  mu: -0.014894168  nElectrons: 249.900000","chan":"stdout","logger":"task"}
{"timestamp":"2025-09-01T18:13:34.958273Z","level":"info","event":"LCAOMinimize: Iter:  15  F: -959.2912747641106535  |grad|_K:  1.689e-03  alpha:  7.706e-02  linmin: -1.434e-01  cgtest:  3.927e-01  t[s]:    218.47","chan":"stdout","logger":"task"}
{"timestamp":"2025-09-01T18:13:34.958659Z","level":"info","event":"LCAOMinimize: Encountered beta<0, resetting CG.","chan":"stdout","logger":"task"}
{"timestamp":"2025-09-01T18:13:36.801475Z","level":"info","event":"LCAOMinimize: None of the convergence criteria satisfied after 15 iterations.","chan":"stdout","logger":"task"}
{"timestamp":"2025-09-01T18:13:36.801810Z","level":"info","event":"----- createFluidSolver() ----- (Fluid-side solver setup)","chan":"stdout","logger":"task"}
{"timestamp":"2025-09-01T18:13:36.802142Z","level":"info","event":"   Initializing fluid molecule 'H2O'","chan":"stdout","logger":"task"}
{"timestamp":"2025-09-01T18:13:36.802497Z","level":"info","event":"     Initializing site 'O'","chan":"stdout","logger":"task"}
{"timestamp":"2025-09-01T18:13:36.802804Z","level":"info","event":"       Electron density: proportional to exp(-r/0.36935)*erfc((r-0.51523)/0.36823) with norm 6.826","chan":"stdout","logger":"task"}
{"timestamp":"2025-09-01T18:13:36.809994Z","level":"info","event":"       Charge density: gaussian nuclear width 0.478731 with net site charge 0.826","chan":"stdout","logger":"task"}
{"timestamp":"2025-09-01T18:13:36.810314Z","level":"info","event":"       Polarizability: cuspless exponential with width 0.32 and norm 3.73","chan":"stdout","logger":"task"}
{"timestamp":"2025-09-01T18:13:36.810579Z","level":"info","event":"       Hard sphere radius: 2.57003 bohrs","chan":"stdout","logger":"task"}
{"timestamp":"2025-09-01T18:13:36.810917Z","level":"info","event":"       Positions in reference frame:","chan":"stdout","logger":"task"}
{"timestamp":"2025-09-01T18:13:36.811240Z","level":"info","event":"         [ +0.000000 +0.000000 +0.000000 ]","chan":"stdout","logger":"task"}
{"timestamp":"2025-09-01T18:13:36.811553Z","level":"info","event":"     Initializing site 'H'","chan":"stdout","logger":"task"}
{"timestamp":"2025-09-01T18:13:36.811918Z","level":"info","event":"       Electron density: proportional to exp(-r/0.34641)*erfc((r-0)/0.390882) with norm 0.587","chan":"stdout","logger":"task"}
{"timestamp":"2025-09-01T18:13:36.812228Z","level":"info","event":"       Charge density: gaussian nuclear width 0.377945 with net site charge -0.413","chan":"stdout","logger":"task"}
{"timestamp":"2025-09-01T18:13:36.812531Z","level":"info","event":"       Polarizability: cuspless exponential with width 0.39 and norm 3.3","chan":"stdout","logger":"task"}
{"timestamp":"2025-09-01T18:13:36.812827Z","level":"info","event":"       Positions in reference frame:","chan":"stdout","logger":"task"}
{"timestamp":"2025-09-01T18:13:36.813168Z","level":"info","event":"         [ +0.000000 -1.441945 +1.122523 ]","chan":"stdout","logger":"task"}
{"timestamp":"2025-09-01T18:13:36.813498Z","level":"info","event":"         [ +0.000000 +1.441945 +1.122523 ]","chan":"stdout","logger":"task"}
{"timestamp":"2025-09-01T18:13:36.813820Z","level":"info","event":"     Net charge: 0   dipole magnitude: 0.927204","chan":"stdout","logger":"task"}
{"timestamp":"2025-09-01T18:13:36.814195Z","level":"info","event":"     Initializing spherical shell mfKernel with radius 2.61727 Bohr","chan":"stdout","logger":"task"}
{"timestamp":"2025-09-01T18:13:36.814519Z","level":"info","event":"     deltaS corrections:","chan":"stdout","logger":"task"}
{"timestamp":"2025-09-01T18:13:36.814878Z","level":"info","event":"       site 'O': -7.54299","chan":"stdout","logger":"task"}
{"timestamp":"2025-09-01T18:13:36.815166Z","level":"info","event":"       site 'H': -6.83917","chan":"stdout","logger":"task"}
{"timestamp":"2025-09-01T18:13:36.815522Z","level":"info","event":"   Initializing fluid molecule 'Na+'","chan":"stdout","logger":"task"}
{"timestamp":"2025-09-01T18:13:36.815804Z","level":"info","event":"     Initializing site 'Na'","chan":"stdout","logger":"task"}
{"timestamp":"2025-09-01T18:13:36.816057Z","level":"info","event":"       Electron density: proportional to exp(-r/0.19682)*erfc((r-0.71491)/0.41314) with norm 8.1383","chan":"stdout","logger":"task"}
{"timestamp":"2025-09-01T18:13:36.816339Z","level":"info","event":"       Charge density: gaussian nuclear width 0.365347 with net site charge -1","chan":"stdout","logger":"task"}
{"timestamp":"2025-09-01T18:13:36.816594Z","level":"info","event":"       Hard sphere radius: 1.86327 bohrs","chan":"stdout","logger":"task"}
{"timestamp":"2025-09-01T18:13:36.816849Z","level":"info","event":"       Positions in reference frame:","chan":"stdout","logger":"task"}
{"timestamp":"2025-09-01T18:13:36.817054Z","level":"info","event":"         [ +0.000000 +0.000000 +0.000000 ]","chan":"stdout","logger":"task"}
{"timestamp":"2025-09-01T18:13:36.817339Z","level":"info","event":"     Net charge: -1   dipole magnitude: 0","chan":"stdout","logger":"task"}
{"timestamp":"2025-09-01T18:13:36.817634Z","level":"info","event":"     Initializing gaussian mfKernel with width: 1.55004 Bohr","chan":"stdout","logger":"task"}
{"timestamp":"2025-09-01T18:13:36.817949Z","level":"info","event":"     deltaS corrections:","chan":"stdout","logger":"task"}
{"timestamp":"2025-09-01T18:13:36.818340Z","level":"info","event":"       site 'Na': -22.3555","chan":"stdout","logger":"task"}
{"timestamp":"2025-09-01T18:13:36.818645Z","level":"info","event":"   Initializing fluid molecule 'F-'","chan":"stdout","logger":"task"}
{"timestamp":"2025-09-01T18:13:36.818903Z","level":"info","event":"     Initializing site 'F'","chan":"stdout","logger":"task"}
{"timestamp":"2025-09-01T18:13:36.819218Z","level":"info","event":"       Electron density: proportional to exp(-r/0.38886)*erfc((r-0)/0.438782) with norm 8","chan":"stdout","logger":"task"}
{"timestamp":"2025-09-01T18:13:36.819548Z","level":"info","event":"       Charge density: gaussian nuclear width 0.374796 with net site charge 1","chan":"stdout","logger":"task"}
{"timestamp":"2025-09-01T18:13:36.819924Z","level":"info","event":"       Hard sphere radius: 2.39995 bohrs","chan":"stdout","logger":"task"}
{"timestamp":"2025-09-01T18:13:36.820238Z","level":"info","event":"       Positions in reference frame:","chan":"stdout","logger":"task"}
{"timestamp":"2025-09-01T18:13:36.820610Z","level":"info","event":"         [ +0.000000 +0.000000 +0.000000 ]","chan":"stdout","logger":"task"}
{"timestamp":"2025-09-01T18:13:36.820883Z","level":"info","event":"     Net charge: 1   dipole magnitude: 0","chan":"stdout","logger":"task"}
{"timestamp":"2025-09-01T18:13:36.821175Z","level":"info","event":"     Initializing gaussian mfKernel with width: 1.59012 Bohr","chan":"stdout","logger":"task"}
{"timestamp":"2025-09-01T18:13:36.821501Z","level":"info","event":"     deltaS corrections:","chan":"stdout","logger":"task"}
{"timestamp":"2025-09-01T18:13:36.821844Z","level":"info","event":"       site 'F': -9.04335","chan":"stdout","logger":"task"}
{"timestamp":"2025-09-01T18:13:36.822500Z","level":"info","event":"","chan":"stdout","logger":"task"}
{"timestamp":"2025-09-01T18:13:36.822836Z","level":"info","event":"Correction to mu due to finite nuclear width = -0.115287","chan":"stdout","logger":"task"}
{"timestamp":"2025-09-01T18:13:36.824054Z","level":"info","event":"   Cavity determined by nc: 0.00142 and sigma: 0.707107","chan":"stdout","logger":"task"}
{"timestamp":"2025-09-01T18:13:36.824359Z","level":"info","event":"   Nonlocal vdW cavity from gaussian model electron density with norm = 8 and sigma = 0.993594 bohr","chan":"stdout","logger":"task"}
{"timestamp":"2025-09-01T18:13:36.824656Z","level":"info","event":"   Charge asymmetry in cavity with sensitivity pCavity = 36.5 e-bohr/Eh","chan":"stdout","logger":"task"}
{"timestamp":"2025-09-01T18:13:36.825025Z","level":"info","event":"   Electrostatic cavity expanded by eta = 1.46 bohrs","chan":"stdout","logger":"task"}
{"timestamp":"2025-09-01T18:13:36.825331Z","level":"info","event":"   Weighted density cavitation model constrained by Nbulk: 0.0049383 bohr^-3, Pvap: 3.14029 kPa, Rvdw: 2.61727 bohr and sigmaBulk: 4.62e-05 Eh/bohr^2 at T: 298 K.","chan":"stdout","logger":"task"}
{"timestamp":"2025-09-01T18:13:36.825634Z","level":"info","event":"   Weighted density dispersion model using vdW pair potentials with single solvent site with sqrtC6eff: 0.77 SI.","chan":"stdout","logger":"task"}
{"timestamp":"2025-09-01T18:13:36.825941Z","level":"info","event":"","chan":"stdout","logger":"task"}
{"timestamp":"2025-09-01T18:13:36.826313Z","level":"info","event":"","chan":"stdout","logger":"task"}
{"timestamp":"2025-09-01T18:13:36.826678Z","level":"info","event":"---- Citations for features of the code used in this run ----","chan":"stdout","logger":"task"}
{"timestamp":"2025-09-01T18:13:36.827072Z","level":"info","event":"","chan":"stdout","logger":"task"}
{"timestamp":"2025-09-01T18:13:36.827396Z","level":"info","event":"   Software package:","chan":"stdout","logger":"task"}
{"timestamp":"2025-09-01T18:13:36.827747Z","level":"info","event":"      R. Sundararaman, K. Letchworth-Weaver, K.A. Schwarz, D. Gunceler, Y. Ozhabes and T.A. Arias, 'JDFTx: software for joint density-functional theory', SoftwareX 6, 278 (2017)","chan":"stdout","logger":"task"}
{"timestamp":"2025-09-01T18:13:36.828062Z","level":"info","event":"","chan":"stdout","logger":"task"}
{"timestamp":"2025-09-01T18:13:36.828382Z","level":"info","event":"   gga-PBE exchange-correlation functional:","chan":"stdout","logger":"task"}
{"timestamp":"2025-09-01T18:13:36.828745Z","level":"info","event":"      J.P. Perdew, K. Burke and M. Ernzerhof, Phys. Rev. Lett. 77, 3865 (1996)","chan":"stdout","logger":"task"}
{"timestamp":"2025-09-01T18:13:36.829108Z","level":"info","event":"","chan":"stdout","logger":"task"}
{"timestamp":"2025-09-01T18:13:36.829565Z","level":"info","event":"   Pseudopotentials:","chan":"stdout","logger":"task"}
{"timestamp":"2025-09-01T18:13:36.829957Z","level":"info","event":"      KF Garrity, JW Bennett, KM Rabe and D Vanderbilt, Comput. Mater. Sci. 81, 446 (2014)","chan":"stdout","logger":"task"}
{"timestamp":"2025-09-01T18:13:36.830293Z","level":"info","event":"","chan":"stdout","logger":"task"}
{"timestamp":"2025-09-01T18:13:36.830647Z","level":"info","event":"   DFT-D2 dispersion correction:","chan":"stdout","logger":"task"}
{"timestamp":"2025-09-01T18:13:36.830991Z","level":"info","event":"      S. Grimme, J. Comput. Chem. 27, 1787 (2006)","chan":"stdout","logger":"task"}
{"timestamp":"2025-09-01T18:13:36.831529Z","level":"info","event":"","chan":"stdout","logger":"task"}
{"timestamp":"2025-09-01T18:13:36.832030Z","level":"info","event":"   Charge-asymmetric nonlocally-determined local-electric (CANDLE) solvation model:","chan":"stdout","logger":"task"}
{"timestamp":"2025-09-01T18:13:36.832411Z","level":"info","event":"      R. Sundararaman and W.A. Goddard III, J. Chem. Phys. 142, 064107 (2015)","chan":"stdout","logger":"task"}
{"timestamp":"2025-09-01T18:13:36.832754Z","level":"info","event":"","chan":"stdout","logger":"task"}
{"timestamp":"2025-09-01T18:13:36.833081Z","level":"info","event":"   Total energy minimization with Auxiliary Hamiltonian:","chan":"stdout","logger":"task"}
{"timestamp":"2025-09-01T18:13:36.833438Z","level":"info","event":"      C. Freysoldt, S. Boeck, and J. Neugebauer, Phys. Rev. B 79, 241103(R) (2009)","chan":"stdout","logger":"task"}
{"timestamp":"2025-09-01T18:13:36.833742Z","level":"info","event":"","chan":"stdout","logger":"task"}
{"timestamp":"2025-09-01T18:13:36.834075Z","level":"info","event":"This list may not be complete. Please suggest additional citations or","chan":"stdout","logger":"task"}
{"timestamp":"2025-09-01T18:13:36.834478Z","level":"info","event":"report any other bugs at https://github.com/shankar1729/jdftx/issues","chan":"stdout","logger":"task"}
{"timestamp":"2025-09-01T18:13:36.834826Z","level":"info","event":"","chan":"stdout","logger":"task"}
{"timestamp":"2025-09-01T18:13:36.835168Z","level":"info","event":"Initialization completed successfully at t[s]:    220.31","chan":"stdout","logger":"task"}
{"timestamp":"2025-09-01T18:13:36.835517Z","level":"info","event":"","chan":"stdout","logger":"task"}
{"timestamp":"2025-09-01T18:13:37.143654Z","level":"info","event":"Fluid solver invoked on fresh (random / LCAO) wavefunctions","chan":"stdout","logger":"task"}
{"timestamp":"2025-09-01T18:13:37.144065Z","level":"info","event":"Running a vacuum solve first:","chan":"stdout","logger":"task"}
{"timestamp":"2025-09-01T18:13:37.144393Z","level":"info","event":"","chan":"stdout","logger":"task"}
{"timestamp":"2025-09-01T18:13:37.144659Z","level":"info","event":"-------- Initial electronic minimization -----------","chan":"stdout","logger":"task"}
{"timestamp":"2025-09-01T18:13:45.399055Z","level":"info","event":"\tFillingsUpdate:  mu: -0.014893974  nElectrons: 249.900000","chan":"stdout","logger":"task"}
{"timestamp":"2025-09-01T18:13:45.400254Z","level":"info","event":"ElecMinimize: Iter:   0  F: -959.291274764107584  |grad|_K:  1.718e-03  alpha:  1.000e+00","chan":"stdout","logger":"task"}
{"timestamp":"2025-09-01T18:13:56.633294Z","level":"info","event":"\tFillingsUpdate:  mu: -0.013944095  nElectrons: 249.900000","chan":"stdout","logger":"task"}
{"timestamp":"2025-09-01T18:13:56.637475Z","level":"info","event":"\tSubspaceRotationAdjust: set factor to 0.668","chan":"stdout","logger":"task"}
{"timestamp":"2025-09-01T18:13:56.638138Z","level":"info","event":"ElecMinimize: Iter:   1  F: -960.405768030979516  |grad|_K:  1.456e-03  alpha:  4.553e-01  linmin:  3.419e-04  t[s]:    240.15","chan":"stdout","logger":"task"}
{"timestamp":"2025-09-01T18:14:08.815526Z","level":"info","event":"\tFillingsUpdate:  mu: -0.019483672  nElectrons: 249.900000","chan":"stdout","logger":"task"}
{"timestamp":"2025-09-01T18:14:08.819710Z","level":"info","event":"\tSubspaceRotationAdjust: set factor to 0.42","chan":"stdout","logger":"task"}
{"timestamp":"2025-09-01T18:14:08.820291Z","level":"info","event":"ElecMinimize: Iter:   2  F: -960.531939351572760  |grad|_K:  1.193e-03  alpha:  8.416e-02  linmin:  2.324e-03  t[s]:    252.33","chan":"stdout","logger":"task"}
{"timestamp":"2025-09-01T18:14:20.233122Z","level":"info","event":"\tFillingsUpdate:  mu: -0.020597987  nElectrons: 249.900000","chan":"stdout","logger":"task"}
{"timestamp":"2025-09-01T18:14:20.236783Z","level":"info","event":"\tSubspaceRotationAdjust: set factor to 0.322","chan":"stdout","logger":"task"}
{"timestamp":"2025-09-01T18:14:20.237573Z","level":"info","event":"ElecMinimize: Iter:   3  F: -960.745767709241704  |grad|_K:  8.273e-04  alpha:  2.027e-01  linmin: -9.602e-04  t[s]:    263.75","chan":"stdout","logger":"task"}
{"timestamp":"2025-09-01T18:14:32.239220Z","level":"info","event":"\tFillingsUpdate:  mu: -0.033945930  nElectrons: 249.900000","chan":"stdout","logger":"task"}
{"timestamp":"2025-09-01T18:14:32.244262Z","level":"info","event":"\tSubspaceRotationAdjust: set factor to 0.271","chan":"stdout","logger":"task"}
{"timestamp":"2025-09-01T18:14:32.245047Z","level":"info","event":"ElecMinimize: Iter:   4  F: -960.852622871014432  |grad|_K:  6.071e-04  alpha:  1.755e-01  linmin: -1.318e-04  t[s]:    275.75","chan":"stdout","logger":"task"}
{"timestamp":"2025-09-01T18:14:44.626108Z","level":"info","event":"\tFillingsUpdate:  mu: -0.038876470  nElectrons: 249.900000","chan":"stdout","logger":"task"}
{"timestamp":"2025-09-01T18:14:44.629901Z","level":"info","event":"\tSubspaceRotationAdjust: set factor to 0.226","chan":"stdout","logger":"task"}
{"timestamp":"2025-09-01T18:14:44.630469Z","level":"info","event":"ElecMinimize: Iter:   5  F: -960.917256988360577  |grad|_K:  4.419e-04  alpha:  2.079e-01  linmin:  7.332e-04  t[s]:    288.14","chan":"stdout","logger":"task"}
{"timestamp":"2025-09-01T18:14:55.860630Z","level":"info","event":"\tFillingsUpdate:  mu: -0.032681159  nElectrons: 249.900000","chan":"stdout","logger":"task"}
{"timestamp":"2025-09-01T18:14:55.864286Z","level":"info","event":"\tSubspaceRotationAdjust: set factor to 0.237","chan":"stdout","logger":"task"}
{"timestamp":"2025-09-01T18:14:55.864796Z","level":"info","event":"ElecMinimize: Iter:   6  F: -960.953349153204954  |grad|_K:  3.039e-04  alpha:  2.275e-01  linmin:  1.982e-04  t[s]:    299.37","chan":"stdout","logger":"task"}
{"timestamp":"2025-09-01T18:15:07.231184Z","level":"info","event":"\tFillingsUpdate:  mu: -0.033383878  nElectrons: 249.900000","chan":"stdout","logger":"task"}
{"timestamp":"2025-09-01T18:15:07.235782Z","level":"info","event":"\tSubspaceRotationAdjust: set factor to 0.192","chan":"stdout","logger":"task"}
{"timestamp":"2025-09-01T18:15:07.236478Z","level":"info","event":"ElecMinimize: Iter:   7  F: -960.973937553173641  |grad|_K:  2.609e-04  alpha:  2.661e-01  linmin: -1.609e-04  t[s]:    310.75","chan":"stdout","logger":"task"}
{"timestamp":"2025-09-01T18:15:18.747532Z","level":"info","event":"\tFillingsUpdate:  mu: -0.029912217  nElectrons: 249.900000","chan":"stdout","logger":"task"}
{"timestamp":"2025-09-01T18:15:18.751293Z","level":"info","event":"\tSubspaceRotationAdjust: set factor to 0.274","chan":"stdout","logger":"task"}
{"timestamp":"2025-09-01T18:15:18.751791Z","level":"info","event":"ElecMinimize: Iter:   8  F: -960.990169984708018  |grad|_K:  1.663e-04  alpha:  2.799e-01  linmin:  6.209e-05  t[s]:    322.26","chan":"stdout","logger":"task"}
{"timestamp":"2025-09-01T18:15:29.817177Z","level":"info","event":"\tFillingsUpdate:  mu: -0.030250342  nElectrons: 249.900000","chan":"stdout","logger":"task"}
{"timestamp":"2025-09-01T18:15:29.820704Z","level":"info","event":"\tSubspaceRotationAdjust: set factor to 0.232","chan":"stdout","logger":"task"}
{"timestamp":"2025-09-01T18:15:29.821189Z","level":"info","event":"ElecMinimize: Iter:   9  F: -960.996598201099573  |grad|_K:  1.574e-04  alpha:  2.762e-01  linmin:  1.518e-04  t[s]:    333.33","chan":"stdout","logger":"task"}
{"timestamp":"2025-09-01T18:15:41.008730Z","level":"info","event":"\tFillingsUpdate:  mu: -0.027776833  nElectrons: 249.900000","chan":"stdout","logger":"task"}
{"timestamp":"2025-09-01T18:15:41.012530Z","level":"info","event":"\tSubspaceRotationAdjust: set factor to 0.329","chan":"stdout","logger":"task"}
{"timestamp":"2025-09-01T18:15:41.013186Z","level":"info","event":"ElecMinimize: Iter:  10  F: -961.002933287841984  |grad|_K:  1.044e-04  alpha:  3.058e-01  linmin:  1.029e-04  t[s]:    344.52","chan":"stdout","logger":"task"}
{"timestamp":"2025-09-01T18:15:53.144011Z","level":"info","event":"\tFillingsUpdate:  mu: -0.028328872  nElectrons: 249.900000","chan":"stdout","logger":"task"}
{"timestamp":"2025-09-01T18:15:53.147666Z","level":"info","event":"\tSubspaceRotationAdjust: set factor to 0.242","chan":"stdout","logger":"task"}
{"timestamp":"2025-09-01T18:15:53.148110Z","level":"info","event":"ElecMinimize: Iter:  11  F: -961.005983721949747  |grad|_K:  1.205e-04  alpha:  3.339e-01  linmin:  8.195e-05  t[s]:    356.66","chan":"stdout","logger":"task"}
{"timestamp":"2025-09-01T18:16:04.407356Z","level":"info","event":"\tFillingsUpdate:  mu: -0.027081677  nElectrons: 249.900000","chan":"stdout","logger":"task"}
{"timestamp":"2025-09-01T18:16:04.411227Z","level":"info","event":"\tSubspaceRotationAdjust: set factor to 0.258","chan":"stdout","logger":"task"}
{"timestamp":"2025-09-01T18:16:04.411793Z","level":"info","event":"ElecMinimize: Iter:  12  F: -961.008825015652860  |grad|_K:  7.070e-05  alpha:  2.317e-01  linmin:  3.028e-05  t[s]:    367.92","chan":"stdout","logger":"task"}
{"timestamp":"2025-09-01T18:16:16.216263Z","level":"info","event":"\tFillingsUpdate:  mu: -0.028383053  nElectrons: 249.900000","chan":"stdout","logger":"task"}
{"timestamp":"2025-09-01T18:16:16.220403Z","level":"info","event":"\tSubspaceRotationAdjust: set factor to 0.243","chan":"stdout","logger":"task"}
{"timestamp":"2025-09-01T18:16:16.221161Z","level":"info","event":"ElecMinimize: Iter:  13  F: -961.010539636170279  |grad|_K:  6.450e-05  alpha:  4.079e-01  linmin:  7.536e-05  t[s]:    379.73","chan":"stdout","logger":"task"}
{"timestamp":"2025-09-01T18:16:28.662047Z","level":"info","event":"\tFillingsUpdate:  mu: -0.028209279  nElectrons: 249.900000","chan":"stdout","logger":"task"}
{"timestamp":"2025-09-01T18:16:28.665501Z","level":"info","event":"\tSubspaceRotationAdjust: set factor to 0.194","chan":"stdout","logger":"task"}
{"timestamp":"2025-09-01T18:16:28.665970Z","level":"info","event":"ElecMinimize: Iter:  14  F: -961.011342644387355  |grad|_K:  4.663e-05  alpha:  2.296e-01  linmin:  4.499e-06  t[s]:    392.18","chan":"stdout","logger":"task"}
{"timestamp":"2025-09-01T18:16:40.208269Z","level":"info","event":"\tFillingsUpdate:  mu: -0.027917267  nElectrons: 249.900000","chan":"stdout","logger":"task"}
{"timestamp":"2025-09-01T18:16:40.212978Z","level":"info","event":"\tSubspaceRotationAdjust: set factor to 0.231","chan":"stdout","logger":"task"}
{"timestamp":"2025-09-01T18:16:40.213688Z","level":"info","event":"ElecMinimize: Iter:  15  F: -961.011979453536014  |grad|_K:  3.403e-05  alpha:  3.472e-01  linmin:  5.513e-05  t[s]:    403.72","chan":"stdout","logger":"task"}
{"timestamp":"2025-09-01T18:16:40.214170Z","level":"info","event":"ElecMinimize: None of the convergence criteria satisfied after 15 iterations.","chan":"stdout","logger":"task"}
{"timestamp":"2025-09-01T18:16:40.214943Z","level":"info","event":"Setting wave functions to eigenvectors of Hamiltonian","chan":"stdout","logger":"task"}
{"timestamp":"2025-09-01T18:16:40.245499Z","level":"info","event":"Vacuum energy after initial minimize, F = -961.011979453536014","chan":"stdout","logger":"task"}
{"timestamp":"2025-09-01T18:16:40.246036Z","level":"info","event":"","chan":"stdout","logger":"task"}
{"timestamp":"2025-09-01T18:16:40.246451Z","level":"info","event":"","chan":"stdout","logger":"task"}
{"timestamp":"2025-09-01T18:16:40.246837Z","level":"info","event":"-------- Electronic minimization -----------","chan":"stdout","logger":"task"}
{"timestamp":"2025-09-01T18:16:52.622909Z","level":"info","event":"\tLinear fluid (dielectric constant: 78.4, screening length: 5.74355 Bohr) occupying 0.389411 of unit cell:\tCompleted after 24 iterations at t[s]:    409.67","chan":"stdout","logger":"task"}
{"timestamp":"2025-09-01T18:16:52.623460Z","level":"info","event":"\tFillingsUpdate:  mu: -0.204476909  nElectrons: 249.900000","chan":"stdout","logger":"task"}
{"timestamp":"2025-09-01T18:16:52.624195Z","level":"info","event":"ElecMinimize: Iter:   0  F: -960.978378356340386  |grad|_K:  4.020e-04  alpha:  1.000e+00","chan":"stdout","logger":"task"}
{"timestamp":"2025-09-01T18:17:00.285092Z","level":"info","event":"\tLinear fluid (dielectric constant: 78.4, screening length: 5.74355 Bohr) occupying 0.397208 of unit cell:\tCompleted after 22 iterations at t[s]:    420.26","chan":"stdout","logger":"task"}
{"timestamp":"2025-09-01T18:17:06.605097Z","level":"info","event":"\tLinear fluid (dielectric constant: 78.4, screening length: 5.74355 Bohr) occupying 0.390644 of unit cell:\tCompleted after 21 iterations at t[s]:    424.55","chan":"stdout","logger":"task"}
{"timestamp":"2025-09-01T18:17:06.606141Z","level":"info","event":"\tFillingsUpdate:  mu: -0.191283922  nElectrons: 249.900000","chan":"stdout","logger":"task"}
{"timestamp":"2025-09-01T18:17:06.608639Z","level":"info","event":"\tSubspaceRotationAdjust: set factor to 0.106","chan":"stdout","logger":"task"}
{"timestamp":"2025-09-01T18:17:06.609158Z","level":"info","event":"ElecMinimize: Iter:   1  F: -960.999734221486619  |grad|_K:  1.991e-04  alpha:  2.947e-01  linmin:  1.020e-02  t[s]:    430.12","chan":"stdout","logger":"task"}
{"timestamp":"2025-09-01T18:17:13.771803Z","level":"info","event":"\tLinear fluid (dielectric constant: 78.4, screening length: 5.74355 Bohr) occupying 0.391504 of unit cell:\tCompleted after 17 iterations at t[s]:    434.00","chan":"stdout","logger":"task"}
{"timestamp":"2025-09-01T18:17:19.886376Z","level":"info","event":"\tLinear fluid (dielectric constant: 78.4, screening length: 5.74355 Bohr) occupying 0.391903 of unit cell:\tCompleted after 16 iterations at t[s]:    437.82","chan":"stdout","logger":"task"}
{"timestamp":"2025-09-01T18:17:19.887422Z","level":"info","event":"\tFillingsUpdate:  mu: -0.185207234  nElectrons: 249.900000","chan":"stdout","logger":"task"}
{"timestamp":"2025-09-01T18:17:19.889953Z","level":"info","event":"\tSubspaceRotationAdjust: set factor to 0.0588","chan":"stdout","logger":"task"}
{"timestamp":"2025-09-01T18:17:19.891441Z","level":"info","event":"ElecMinimize: Iter:   2  F: -961.008906166963357  |grad|_K:  6.046e-05  alpha:  4.296e-01  linmin:  1.999e-04  t[s]:    443.40","chan":"stdout","logger":"task"}
{"timestamp":"2025-09-01T18:17:26.995388Z","level":"info","event":"\tLinear fluid (dielectric constant: 78.4, screening length: 5.74355 Bohr) occupying 0.392523 of unit cell:\tCompleted after 15 iterations at t[s]:    447.09","chan":"stdout","logger":"task"}
{"timestamp":"2025-09-01T18:17:33.058900Z","level":"info","event":"\tLinear fluid (dielectric constant: 78.4, screening length: 5.74355 Bohr) occupying 0.392975 of unit cell:\tCompleted after 15 iterations at t[s]:    451.05","chan":"stdout","logger":"task"}
{"timestamp":"2025-09-01T18:17:33.059951Z","level":"info","event":"\tFillingsUpdate:  mu: -0.182200939  nElectrons: 249.900000","chan":"stdout","logger":"task"}
{"timestamp":"2025-09-01T18:17:33.062963Z","level":"info","event":"\tSubspaceRotationAdjust: set factor to 0.0686","chan":"stdout","logger":"task"}
{"timestamp":"2025-09-01T18:17:33.063518Z","level":"info","event":"ElecMinimize: Iter:   3  F: -961.011192084771210  |grad|_K:  5.541e-05  alpha:  7.514e-01  linmin: -7.873e-06  t[s]:    456.57","chan":"stdout","logger":"task"}
{"timestamp":"2025-09-01T18:17:40.163997Z","level":"info","event":"\tLinear fluid (dielectric constant: 78.4, screening length: 5.74355 Bohr) occupying 0.394536 of unit cell:\tCompleted after 15 iterations at t[s]:    460.46","chan":"stdout","logger":"task"}
{"timestamp":"2025-09-01T18:17:45.651582Z","level":"info","event":"\tLinear fluid (dielectric constant: 78.4, screening length: 5.74355 Bohr) occupying 0.394471 of unit cell:\tCompleted after 8 iterations at t[s]:    463.97","chan":"stdout","logger":"task"}
{"timestamp":"2025-09-01T18:17:45.652692Z","level":"info","event":"\tFillingsUpdate:  mu: -0.179192053  nElectrons: 249.900000","chan":"stdout","logger":"task"}
{"timestamp":"2025-09-01T18:17:45.655349Z","level":"info","event":"\tSubspaceRotationAdjust: set factor to 0.0793","chan":"stdout","logger":"task"}
{"timestamp":"2025-09-01T18:17:45.655931Z","level":"info","event":"ElecMinimize: Iter:   4  F: -961.013060586688766  |grad|_K:  5.375e-05  alpha:  7.188e-01  linmin: -1.500e-05  t[s]:    469.17","chan":"stdout","logger":"task"}
{"timestamp":"2025-09-01T18:17:52.742502Z","level":"info","event":"\tLinear fluid (dielectric constant: 78.4, screening length: 5.74355 Bohr) occupying 0.396208 of unit cell:\tCompleted after 15 iterations at t[s]:    472.87","chan":"stdout","logger":"task"}
{"timestamp":"2025-09-01T18:17:59.665196Z","level":"info","event":"\tLinear fluid (dielectric constant: 78.4, screening length: 5.74355 Bohr) occupying 0.396049 of unit cell:\tCompleted after 10 iterations at t[s]:    476.62","chan":"stdout","logger":"task"}
{"timestamp":"2025-09-01T18:17:59.665744Z","level":"info","event":"\tFillingsUpdate:  mu: -0.176523322  nElectrons: 249.900000","chan":"stdout","logger":"task"}
{"timestamp":"2025-09-01T18:17:59.670261Z","level":"info","event":"\tSubspaceRotationAdjust: set factor to 0.0952","chan":"stdout","logger":"task"}
{"timestamp":"2025-09-01T18:17:59.670924Z","level":"info","event":"ElecMinimize: Iter:   5  F: -961.014655054762898  |grad|_K:  4.544e-05  alpha:  6.494e-01  linmin: -1.611e-05  t[s]:    483.18","chan":"stdout","logger":"task"}
{"timestamp":"2025-09-01T18:18:07.062614Z","level":"info","event":"\tLinear fluid (dielectric constant: 78.4, screening length: 5.74355 Bohr) occupying 0.397215 of unit cell:\tCompleted after 15 iterations at t[s]:    487.22","chan":"stdout","logger":"task"}
{"timestamp":"2025-09-01T18:18:13.115720Z","level":"info","event":"\tLinear fluid (dielectric constant: 78.4, screening length: 5.74355 Bohr) occupying 0.397168 of unit cell:\tCompleted after 7 iterations at t[s]:    490.85","chan":"stdout","logger":"task"}
{"timestamp":"2025-09-01T18:18:13.116274Z","level":"info","event":"\tFillingsUpdate:  mu: -0.175153043  nElectrons: 249.900000","chan":"stdout","logger":"task"}
{"timestamp":"2025-09-01T18:18:13.120166Z","level":"info","event":"\tSubspaceRotationAdjust: set factor to 0.113","chan":"stdout","logger":"task"}
{"timestamp":"2025-09-01T18:18:13.120903Z","level":"info","event":"ElecMinimize: Iter:   6  F: -961.015749108039017  |grad|_K:  4.094e-05  alpha:  6.219e-01  linmin: -1.190e-05  t[s]:    496.63","chan":"stdout","logger":"task"}
{"timestamp":"2025-09-01T18:18:20.161946Z","level":"info","event":"\tLinear fluid (dielectric constant: 78.4, screening length: 5.74355 Bohr) occupying 0.398128 of unit cell:\tCompleted after 13 iterations at t[s]:    500.38","chan":"stdout","logger":"task"}
{"timestamp":"2025-09-01T18:18:26.204919Z","level":"info","event":"\tLinear fluid (dielectric constant: 78.4, screening length: 5.74355 Bohr) occupying 0.398283 of unit cell:\tCompleted after 10 iterations at t[s]:    504.03","chan":"stdout","logger":"task"}
{"timestamp":"2025-09-01T18:18:26.205365Z","level":"info","event":"\tFillingsUpdate:  mu: -0.174113593  nElectrons: 249.900000","chan":"stdout","logger":"task"}
{"timestamp":"2025-09-01T18:18:26.208953Z","level":"info","event":"\tSubspaceRotationAdjust: set factor to 0.129","chan":"stdout","logger":"task"}
{"timestamp":"2025-09-01T18:18:26.209927Z","level":"info","event":"ElecMinimize: Iter:   7  F: -961.016797420336502  |grad|_K:  4.096e-05  alpha:  7.329e-01  linmin: -1.445e-05  t[s]:    509.72","chan":"stdout","logger":"task"}
[...]
{"timestamp":"2025-09-01T18:21:42.405119Z","level":"info","event":"ElecMinimize: Iter:   0  F: -961.019270431153473  |grad|_K:  1.347e-04  alpha:  1.000e+00","chan":"stdout","logger":"task"}
{"timestamp":"2025-09-01T18:21:49.880375Z","level":"info","event":"\tLinear fluid (dielectric constant: 78.4, screening length: 5.74355 Bohr) occupying 0.405169 of unit cell:\tCompleted after 23 iterations at t[s]:     19.58","chan":"stdout","logger":"task"}
{"timestamp":"2025-09-01T18:21:55.968866Z","level":"info","event":"\tLinear fluid (dielectric constant: 78.4, screening length: 5.74355 Bohr) occupying 0.403095 of unit cell:\tCompleted after 22 iterations at t[s]:     23.63","chan":"stdout","logger":"task"}
{"timestamp":"2025-09-01T18:21:55.969769Z","level":"info","event":"\tFillingsUpdate:  mu: -0.174242043  nElectrons: 249.900000","chan":"stdout","logger":"task"}
{"timestamp":"2025-09-01T18:21:55.972757Z","level":"info","event":"\tSubspaceRotationAdjust: set factor to 0.549","chan":"stdout","logger":"task"}
{"timestamp":"2025-09-01T18:21:55.973243Z","level":"info","event":"ElecMinimize: Iter:   1  F: -961.020130160621534  |grad|_K:  3.211e-05  alpha:  4.649e-02  linmin: -4.442e-02  t[s]:     29.02","chan":"stdout","logger":"task"}
{"timestamp":"2025-09-01T18:22:03.329626Z","level":"info","event":"\tLinear fluid (dielectric constant: 78.4, screening length: 5.74355 Bohr) occupying 0.403081 of unit cell:\tCompleted after 10 iterations at t[s]:     32.92","chan":"stdout","logger":"task"}
{"timestamp":"2025-09-01T18:22:08.976352Z","level":"info","event":"\tLinear fluid (dielectric constant: 78.4, screening length: 5.74355 Bohr) occupying 0.403077 of unit cell:\tCompleted after 7 iterations at t[s]:     36.68","chan":"stdout","logger":"task"}
{"timestamp":"2025-09-01T18:22:08.977464Z","level":"info","event":"\tFillingsUpdate:  mu: -0.174019750  nElectrons: 249.900000","chan":"stdout","logger":"task"}
{"timestamp":"2025-09-01T18:22:08.980043Z","level":"info","event":"\tSubspaceRotationAdjust: set factor to 0.388","chan":"stdout","logger":"task"}
{"timestamp":"2025-09-01T18:22:08.980544Z","level":"info","event":"ElecMinimize: Iter:   2  F: -961.020194571451498  |grad|_K:  1.288e-05  alpha:  6.167e-02  linmin:  2.872e-04  t[s]:     42.02","chan":"stdout","logger":"task"}
{"timestamp":"2025-09-01T18:22:15.517761Z","level":"info","event":"\tLinear fluid (dielectric constant: 78.4, screening length: 5.74355 Bohr) occupying 0.403076 of unit cell:\tCompleted after 6 iterations at t[s]:     45.41","chan":"stdout","logger":"task"}
{"timestamp":"2025-09-01T18:22:21.275089Z","level":"info","event":"\tLinear fluid (dielectric constant: 78.4, screening length: 5.74355 Bohr) occupying 0.403075 of unit cell:\tCompleted after 7 iterations at t[s]:     48.82","chan":"stdout","logger":"task"}
{"timestamp":"2025-09-01T18:22:21.276151Z","level":"info","event":"\tFillingsUpdate:  mu: -0.173606870  nElectrons: 249.900000","chan":"stdout","logger":"task"}
{"timestamp":"2025-09-01T18:22:21.278926Z","level":"info","event":"\tSubspaceRotationAdjust: set factor to 0.418","chan":"stdout","logger":"task"}
{"timestamp":"2025-09-01T18:22:21.279477Z","level":"info","event":"ElecMinimize: Iter:   3  F: -961.020218498680606  |grad|_K:  6.833e-06  alpha:  1.718e-01  linmin:  1.422e-05  t[s]:     54.32","chan":"stdout","logger":"task"}
{"timestamp":"2025-09-01T18:22:28.361271Z","level":"info","event":"\tLinear fluid (dielectric constant: 78.4, screening length: 5.74355 Bohr) occupying 0.403096 of unit cell:\tCompleted after 7 iterations at t[s]:     57.99","chan":"stdout","logger":"task"}
{"timestamp":"2025-09-01T18:22:34.190464Z","level":"info","event":"\tLinear fluid (dielectric constant: 78.4, screening length: 5.74355 Bohr) occupying 0.403104 of unit cell:\tCompleted after 6 iterations at t[s]:     61.65","chan":"stdout","logger":"task"}
{"timestamp":"2025-09-01T18:22:34.190955Z","level":"info","event":"\tFillingsUpdate:  mu: -0.173481961  nElectrons: 249.900000","chan":"stdout","logger":"task"}
{"timestamp":"2025-09-01T18:22:34.194111Z","level":"info","event":"\tSubspaceRotationAdjust: set factor to 0.342","chan":"stdout","logger":"task"}
{"timestamp":"2025-09-01T18:22:34.194672Z","level":"info","event":"ElecMinimize: Iter:   4  F: -961.020227738736025  |grad|_K:  6.995e-06  alpha:  2.343e-01  linmin: -4.131e-05  t[s]:     67.24","chan":"stdout","logger":"task"}
{"timestamp":"2025-09-01T18:22:34.195050Z","level":"info","event":"ElecMinimize: Converged (|Delta F|<5.000000e-05 for 2 iters).","chan":"stdout","logger":"task"}
{"timestamp":"2025-09-01T18:22:34.196136Z","level":"info","event":"Setting wave functions to eigenvectors of Hamiltonian","chan":"stdout","logger":"task"}
{"timestamp":"2025-09-01T18:22:42.376168Z","level":"info","event":"","chan":"stdout","logger":"task"}
{"timestamp":"2025-09-01T18:22:42.376892Z","level":"info","event":"# Ionic positions in cartesian coordinates:","chan":"stdout","logger":"task"}
{"timestamp":"2025-09-01T18:22:42.377238Z","level":"info","event":"ion V   0.000297000000000   0.000206000000000  40.527760999999998 1","chan":"stdout","logger":"task"}
{"timestamp":"2025-09-01T18:22:42.377578Z","level":"info","event":"ion V  -2.867357999999999   4.115779999999999  33.076448999999997 1","chan":"stdout","logger":"task"}
{"timestamp":"2025-09-01T18:22:42.378066Z","level":"info","event":"ion V   0.000297000000000   0.000206000000000  51.335754999999992 1","chan":"stdout","logger":"task"}
{"timestamp":"2025-09-01T18:22:42.378581Z","level":"info","event":"ion V  -2.867357999999999   4.115779999999999  43.884442999999983 1","chan":"stdout","logger":"task"}
{"timestamp":"2025-09-01T18:22:42.379014Z","level":"info","event":"ion V   2.087893999999999   6.178677999999999  29.394374999999997 1","chan":"stdout","logger":"task"}
{"timestamp":"2025-09-01T18:22:42.379498Z","level":"info","event":"ion V   2.923822000000000   2.052782000000000  35.129578999999993 1","chan":"stdout","logger":"task"}
{"timestamp":"2025-09-01T18:22:42.379804Z","level":"info","event":"ion V   0.000297000000000   0.000206000000000  62.143747999999995 1","chan":"stdout","logger":"task"}
{"timestamp":"2025-09-01T18:22:42.380047Z","level":"info","event":"ion V  -2.867357999999999   4.115779999999999  54.692435999999994 1","chan":"stdout","logger":"task"}
{"timestamp":"2025-09-01T18:22:42.380849Z","level":"info","event":"ion V   2.087893999999999   6.178677999999999  40.202368999999983 1","chan":"stdout","logger":"task"}
{"timestamp":"2025-09-01T18:22:42.381231Z","level":"info","event":"ion V   2.923822000000000   2.052782000000000  45.937573000000000 1","chan":"stdout","logger":"task"}
{"timestamp":"2025-09-01T18:22:42.381583Z","level":"info","event":"ion O  -0.406594999999999   3.963560999999999  29.978448999999998 1","chan":"stdout","logger":"task"}
{"timestamp":"2025-09-01T18:22:42.381851Z","level":"info","event":"ion O  -3.080845999999999   7.974219999999999  22.816246999999997 1","chan":"stdout","logger":"task"}
{"timestamp":"2025-09-01T18:22:42.382858Z","level":"info","event":"ion O   8.092021000000001   0.256846000000000  30.899395999999992 1","chan":"stdout","logger":"task"}
{"timestamp":"2025-09-01T18:22:42.383505Z","level":"info","event":"ion O   5.417259000000000   4.267018999999999  23.737565000000000 1","chan":"stdout","logger":"task"}
{"timestamp":"2025-09-01T18:22:42.383760Z","level":"info","event":"ion O  -0.406594999999999   3.963560999999999  40.786441999999994 1","chan":"stdout","logger":"task"}
{"timestamp":"2025-09-01T18:22:42.384115Z","level":"info","event":"ion O   4.781548000000001   4.427946999999999  29.221173999999994 1","chan":"stdout","logger":"task"}
{"timestamp":"2025-09-01T18:22:42.384427Z","level":"info","event":"ion O   2.336115000000000   7.929795999999998  21.273168999999999 1","chan":"stdout","logger":"task"}
{"timestamp":"2025-09-01T18:22:42.384848Z","level":"info","event":"ion O  -3.080845999999999   7.974219999999999  33.624240999999998 1","chan":"stdout","logger":"task"}
{"timestamp":"2025-09-01T18:22:42.385243Z","level":"info","event":"ion O   8.092021000000001   0.256846000000000  41.707389999999990 1","chan":"stdout","logger":"task"}
{"timestamp":"2025-09-01T18:22:42.385715Z","level":"info","event":"ion O   2.674004000000000   0.301442000000000  43.251495999999996 1","chan":"stdout","logger":"task"}
{"timestamp":"2025-09-01T18:22:42.386603Z","level":"info","event":"ion O   0.229520000000000   3.803208999999999  35.304034999999999 1","chan":"stdout","logger":"task"}
{"timestamp":"2025-09-01T18:22:42.386868Z","level":"info","event":"ion O   5.417259000000000   4.267018999999999  34.545558999999997 1","chan":"stdout","logger":"task"}
{"timestamp":"2025-09-01T18:22:42.387085Z","level":"info","event":"ion O  -0.406594999999999   3.963560999999999  51.594435999999995 1","chan":"stdout","logger":"task"}
{"timestamp":"2025-09-01T18:22:42.387318Z","level":"info","event":"ion O   4.781548000000001   4.427946999999999  40.029167999999999 1","chan":"stdout","logger":"task"}
{"timestamp":"2025-09-01T18:22:42.387604Z","level":"info","event":"ion O   2.336115000000000   7.929795999999998  32.081162999999989 1","chan":"stdout","logger":"task"}
{"timestamp":"2025-09-01T18:22:42.387947Z","level":"info","event":"ion O  -3.080845999999999   7.974219999999999  44.432234000000001 1","chan":"stdout","logger":"task"}
{"timestamp":"2025-09-01T18:22:42.388243Z","level":"info","event":"ion O   8.092021000000001   0.256846000000000  52.515383999999983 1","chan":"stdout","logger":"task"}
{"timestamp":"2025-09-01T18:22:42.388500Z","level":"info","event":"ion O   2.674004000000000   0.301442000000000  54.059489999999990 1","chan":"stdout","logger":"task"}
{"timestamp":"2025-09-01T18:22:42.389169Z","level":"info","event":"ion O   0.229520000000000   3.803208999999999  46.112028999999993 1","chan":"stdout","logger":"task"}
{"timestamp":"2025-09-01T18:22:42.389554Z","level":"info","event":"ion O   5.417259000000000   4.267018999999999  45.353552999999991 1","chan":"stdout","logger":"task"}
{"timestamp":"2025-09-01T18:22:42.390227Z","level":"info","event":"","chan":"stdout","logger":"task"}
{"timestamp":"2025-09-01T18:22:42.390621Z","level":"info","event":"# Forces in Cartesian coordinates:","chan":"stdout","logger":"task"}
{"timestamp":"2025-09-01T18:22:42.390947Z","level":"info","event":"force V  -0.069540426348906  -0.070131205339367  -0.069966473402884 1","chan":"stdout","logger":"task"}
{"timestamp":"2025-09-01T18:22:42.392209Z","level":"info","event":"force V  -0.084882865049390  -0.069709630936601  -0.054157207417497 1","chan":"stdout","logger":"task"}
{"timestamp":"2025-09-01T18:22:42.392470Z","level":"info","event":"force V  -0.003720177101801  -0.002742090042697   0.024686085014038 1","chan":"stdout","logger":"task"}
{"timestamp":"2025-09-01T18:22:42.392742Z","level":"info","event":"force V  -0.003340329441140  -0.002905929530664   0.023472433091848 1","chan":"stdout","logger":"task"}
{"timestamp":"2025-09-01T18:22:42.392990Z","level":"info","event":"force V   0.080581106330964  -0.058437007012283   0.111477827777550 1","chan":"stdout","logger":"task"}
{"timestamp":"2025-09-01T18:22:42.393259Z","level":"info","event":"force V  -0.058921233058788   0.006952857340795  -0.036196625243023 1","chan":"stdout","logger":"task"}
{"timestamp":"2025-09-01T18:22:42.393540Z","level":"info","event":"force V   0.046021979043151   0.092817674830639   0.032884328004641 1","chan":"stdout","logger":"task"}
{"timestamp":"2025-09-01T18:22:42.393763Z","level":"info","event":"force V   0.066391538666641   0.085483218399425   0.018136429359591 1","chan":"stdout","logger":"task"}
{"timestamp":"2025-09-01T18:22:42.393957Z","level":"info","event":"force V   0.033584166063078   0.005983792068880   0.028747376029910 1","chan":"stdout","logger":"task"}
{"timestamp":"2025-09-01T18:22:42.394201Z","level":"info","event":"force V  -0.065559249842685   0.053199500237511  -0.048659561782270 1","chan":"stdout","logger":"task"}
{"timestamp":"2025-09-01T18:22:42.394398Z","level":"info","event":"force O   0.074437809650913   0.017407521797649  -0.085678696096868 1","chan":"stdout","logger":"task"}
{"timestamp":"2025-09-01T18:22:42.394622Z","level":"info","event":"force O   0.057073231474476  -0.020862084071189  -0.069323264348440 1","chan":"stdout","logger":"task"}
{"timestamp":"2025-09-01T18:22:42.394914Z","level":"info","event":"force O  -0.052062373361381  -0.083900637775940   0.043216498591580 1","chan":"stdout","logger":"task"}
{"timestamp":"2025-09-01T18:22:42.395171Z","level":"info","event":"force O  -0.050915381537464  -0.104917460484271   0.046567255499013 1","chan":"stdout","logger":"task"}
{"timestamp":"2025-09-01T18:22:42.395417Z","level":"info","event":"force O   0.065086017368188   0.090742835735741  -0.056552590799219 1","chan":"stdout","logger":"task"}
{"timestamp":"2025-09-01T18:22:42.395675Z","level":"info","event":"force O  -0.117610759201478   0.031418260446620  -0.032394094615367 1","chan":"stdout","logger":"task"}
{"timestamp":"2025-09-01T18:22:42.395926Z","level":"info","event":"force O  -0.042671134765447   0.014617225251396  -0.029241189226878 1","chan":"stdout","logger":"task"}
{"timestamp":"2025-09-01T18:22:42.396157Z","level":"info","event":"force O   0.072208301113984   0.075040057885370  -0.059998349035605 1","chan":"stdout","logger":"task"}
{"timestamp":"2025-09-01T18:22:42.396342Z","level":"info","event":"force O  -0.074249207501529  -0.073270977300902   0.059366681315657 1","chan":"stdout","logger":"task"}
{"timestamp":"2025-09-01T18:22:42.396532Z","level":"info","event":"force O   0.071917260115618   0.030588284397201   0.105085143125882 1","chan":"stdout","logger":"task"}
{"timestamp":"2025-09-01T18:22:42.396736Z","level":"info","event":"force O   0.111888915016867  -0.035820638769378   0.052068803707064 1","chan":"stdout","logger":"task"}
{"timestamp":"2025-09-01T18:22:42.396984Z","level":"info","event":"force O  -0.062383893398429  -0.093928349251675   0.062389043581842 1","chan":"stdout","logger":"task"}
{"timestamp":"2025-09-01T18:22:42.397204Z","level":"info","event":"force O   0.049089524263052   0.107713184802466  -0.051672400966212 1","chan":"stdout","logger":"task"}
{"timestamp":"2025-09-01T18:22:42.397390Z","level":"info","event":"force O  -0.111841155268791   0.034659584776327  -0.049700130739692 1","chan":"stdout","logger":"task"}
{"timestamp":"2025-09-01T18:22:42.397561Z","level":"info","event":"force O  -0.073582259654149  -0.027713229774162  -0.109589025142883 1","chan":"stdout","logger":"task"}
{"timestamp":"2025-09-01T18:22:42.397778Z","level":"info","event":"force O   0.052729578477183   0.082449241313775  -0.043567833841338 1","chan":"stdout","logger":"task"}
{"timestamp":"2025-09-01T18:22:42.398112Z","level":"info","event":"force O  -0.053059160778090   0.016086123767760   0.073832243286547 1","chan":"stdout","logger":"task"}
{"timestamp":"2025-09-01T18:22:42.398398Z","level":"info","event":"force O   0.043475166371851  -0.015441499549573   0.037196484225421 1","chan":"stdout","logger":"task"}
{"timestamp":"2025-09-01T18:22:42.398707Z","level":"info","event":"force O   0.116805844097942  -0.030781985251260   0.027895538495454 1","chan":"stdout","logger":"task"}
{"timestamp":"2025-09-01T18:22:42.398892Z","level":"info","event":"force O  -0.074870272775654  -0.017203553196489   0.082489270924813 1","chan":"stdout","logger":"task"}
{"timestamp":"2025-09-01T18:22:42.399071Z","level":"info","event":"","chan":"stdout","logger":"task"}
{"timestamp":"2025-09-01T18:22:42.399239Z","level":"info","event":"# Energy components:","chan":"stdout","logger":"task"}
{"timestamp":"2025-09-01T18:22:42.399423Z","level":"info","event":"   A_diel =       -0.0661847720304338","chan":"stdout","logger":"task"}
{"timestamp":"2025-09-01T18:22:42.400086Z","level":"info","event":"   Eewald =     1419.7625376429457447","chan":"stdout","logger":"task"}
{"timestamp":"2025-09-01T18:22:42.400293Z","level":"info","event":"       EH =     2185.3490314444579781","chan":"stdout","logger":"task"}
{"timestamp":"2025-09-01T18:22:42.400604Z","level":"info","event":"     Eloc =    -4750.9332439134341257","chan":"stdout","logger":"task"}
{"timestamp":"2025-09-01T18:22:42.400893Z","level":"info","event":"      Enl =       -7.2307954255924596","chan":"stdout","logger":"task"}
{"timestamp":"2025-09-01T18:22:42.401149Z","level":"info","event":"      Exc =     -147.2699135364453014","chan":"stdout","logger":"task"}
{"timestamp":"2025-09-01T18:22:42.401352Z","level":"info","event":" Exc_core =       10.4306035930779153","chan":"stdout","logger":"task"}
{"timestamp":"2025-09-01T18:22:42.401583Z","level":"info","event":"       KE =      329.0217348523863166","chan":"stdout","logger":"task"}
{"timestamp":"2025-09-01T18:22:42.401870Z","level":"info","event":"  MuShift =        0.0115286848276848","chan":"stdout","logger":"task"}
{"timestamp":"2025-09-01T18:22:42.402110Z","level":"info","event":"-------------------------------------","chan":"stdout","logger":"task"}
{"timestamp":"2025-09-01T18:22:42.402309Z","level":"info","event":"     Etot =     -960.9247014298068734","chan":"stdout","logger":"task"}
{"timestamp":"2025-09-01T18:22:42.402505Z","level":"info","event":"       TS =        0.0955263089291163","chan":"stdout","logger":"task"}
{"timestamp":"2025-09-01T18:22:42.402692Z","level":"info","event":"-------------------------------------","chan":"stdout","logger":"task"}
{"timestamp":"2025-09-01T18:22:42.402862Z","level":"info","event":"        F =     -961.0202277387360255","chan":"stdout","logger":"task"}
{"timestamp":"2025-09-01T18:22:42.403114Z","level":"info","event":"","chan":"stdout","logger":"task"}
{"timestamp":"2025-09-01T18:22:42.403370Z","level":"info","event":"IonicMinimize: Iter:   0  F: -961.020227738736025  |grad|_K:  6.311e-02  t[s]:     75.42","chan":"stdout","logger":"task"}
{"timestamp":"2025-09-01T18:22:42.588456Z","level":"info","event":"IonicMinimize: None of the convergence criteria satisfied after 0 iterations.","chan":"stdout","logger":"task"}
{"timestamp":"2025-09-01T18:22:42.588795Z","level":"info","event":"","chan":"stdout","logger":"task"}
{"timestamp":"2025-09-01T18:22:42.589136Z","level":"info","event":"#--- Lowdin population analysis ---","chan":"stdout","logger":"task"}
{"timestamp":"2025-09-01T18:22:42.589406Z","level":"info","event":"# oxidation-state V +1.586 +1.517 +1.519 +1.533 +1.653 +1.393 +1.584 +1.535 +1.402 +1.654","chan":"stdout","logger":"task"}
{"timestamp":"2025-09-01T18:22:42.589684Z","level":"info","event":"# oxidation-state O -0.742 -0.717 -0.657 -0.644 -0.685 -0.638 -0.733 -0.708 -0.707 -0.645 -0.633 -0.685 -0.645 -0.633 -0.646 -0.657 -0.717 -0.732 -0.639 -0.741","chan":"stdout","logger":"task"}
{"timestamp":"2025-09-01T18:22:42.589949Z","level":"info","event":"","chan":"stdout","logger":"task"}
{"timestamp":"2025-09-01T18:22:42.590231Z","level":"info","event":"","chan":"stdout","logger":"task"}
{"timestamp":"2025-09-01T18:22:42.596363Z","level":"info","event":"Dumping 'fillings' ... done","chan":"stdout","logger":"task"}
{"timestamp":"2025-09-01T18:22:42.738172Z","level":"info","event":"Dumping 'wfns' ... done","chan":"stdout","logger":"task"}
{"timestamp":"2025-09-01T18:22:42.754683Z","level":"info","event":"Dumping 'fluidState' ... done","chan":"stdout","logger":"task"}
{"timestamp":"2025-09-01T18:22:42.764500Z","level":"info","event":"Dumping 'eigenvals' ... done","chan":"stdout","logger":"task"}
{"timestamp":"2025-09-01T18:22:42.818826Z","level":"info","event":"End date and time: Mon Sep  1 18:22:42 2025  (Duration: 0-0:01:15.81)","chan":"stdout","logger":"task"}
{"timestamp":"2025-09-01T18:22:42.819204Z","level":"info","event":"Done!","chan":"stdout","logger":"task"}
{"timestamp":"2025-09-01T18:22:42.834174","level":"info","event":"Done. Returned value was: None","logger":"airflow.task.operators.airflow.providers.standard.decorators.python._PythonDecoratedOperator"}
