{"timestamp":"2025-09-02T00:13:34.812036","level":"info","event":"DAG bundles loaded: dags-folder","logger":"airflow.dag_processing.bundles.manager.DagBundlesManager"}
{"timestamp":"2025-09-02T00:13:34.813063","level":"info","event":"Filling up the DagBag from /opt/airflow/dags/my_dag.py","logger":"airflow.models.dagbag.DagBag"}
{"timestamp":"2025-09-02T00:13:41.540741Z","level":"info","event":"","chan":"stdout","logger":"task"}
{"timestamp":"2025-09-02T00:13:41.541328Z","level":"info","event":"*************** JDFTx 1.7.0  ***************","chan":"stdout","logger":"task"}
{"timestamp":"2025-09-02T00:13:41.544195Z","level":"info","event":"","chan":"stdout","logger":"task"}
{"timestamp":"2025-09-02T00:13:41.557844Z","level":"info","event":"Start date and time: Tue Sep  2 00:13:41 2025","chan":"stdout","logger":"task"}
{"timestamp":"2025-09-02T00:13:41.558325Z","level":"info","event":"Executable jdftx with command-line: -i /opt/airflow/output/gc_dft/mp-1393040-111-2_-0.1.in","chan":"stdout","logger":"task"}
{"timestamp":"2025-09-02T00:13:41.559138Z","level":"info","event":"Running on hosts (process indices):  ff1b112381ec (0)","chan":"stdout","logger":"task"}
{"timestamp":"2025-09-02T00:13:41.559501Z","level":"info","event":"Divided in process groups (process indices):  0 (0)","chan":"stdout","logger":"task"}
{"timestamp":"2025-09-02T00:13:41.559962Z","level":"info","event":"Resource initialization completed at t[s]:      0.00","chan":"stdout","logger":"task"}
{"timestamp":"2025-09-02T00:13:41.560888Z","level":"info","event":"Run totals: 1 processes, 8 threads, 0 GPUs","chan":"stdout","logger":"task"}
{"timestamp":"2025-09-02T00:13:41.561385Z","level":"info","event":"","chan":"stdout","logger":"task"}
{"timestamp":"2025-09-02T00:13:41.561820Z","level":"info","event":"","chan":"stdout","logger":"task"}
{"timestamp":"2025-09-02T00:13:41.562193Z","level":"info","event":"Input parsed successfully to the following command list (including defaults):","chan":"stdout","logger":"task"}
{"timestamp":"2025-09-02T00:13:41.562597Z","level":"info","event":"","chan":"stdout","logger":"task"}
{"timestamp":"2025-09-02T00:13:41.563496Z","level":"info","event":"basis kpoint-dependent","chan":"stdout","logger":"task"}
{"timestamp":"2025-09-02T00:13:41.564256Z","level":"info","event":"coords-type Cartesian","chan":"stdout","logger":"task"}
{"timestamp":"2025-09-02T00:13:41.564755Z","level":"info","event":"core-overlap-check vector","chan":"stdout","logger":"task"}
{"timestamp":"2025-09-02T00:13:41.565216Z","level":"info","event":"coulomb-interaction Periodic","chan":"stdout","logger":"task"}
{"timestamp":"2025-09-02T00:13:41.565658Z","level":"info","event":"davidson-band-ratio 1.1","chan":"stdout","logger":"task"}
{"timestamp":"2025-09-02T00:13:41.566008Z","level":"info","event":"dump End State","chan":"stdout","logger":"task"}
{"timestamp":"2025-09-02T00:13:41.566364Z","level":"info","event":"dump-name $VAR","chan":"stdout","logger":"task"}
{"timestamp":"2025-09-02T00:13:41.567017Z","level":"info","event":"elec-cutoff 5","chan":"stdout","logger":"task"}
{"timestamp":"2025-09-02T00:13:41.568158Z","level":"info","event":"elec-eigen-algo Davidson","chan":"stdout","logger":"task"}
{"timestamp":"2025-09-02T00:13:41.568810Z","level":"info","event":"elec-ex-corr gga-PBE","chan":"stdout","logger":"task"}
{"timestamp":"2025-09-02T00:13:41.569218Z","level":"info","event":"elec-initial-charge -0.100000","chan":"stdout","logger":"task"}
{"timestamp":"2025-09-02T00:13:41.570029Z","level":"info","event":"elec-smearing Fermi 0.01","chan":"stdout","logger":"task"}
{"timestamp":"2025-09-02T00:13:41.571319Z","level":"info","event":"electronic-minimize  \\","chan":"stdout","logger":"task"}
{"timestamp":"2025-09-02T00:13:41.572310Z","level":"info","event":"\tdirUpdateScheme      FletcherReeves \\","chan":"stdout","logger":"task"}
{"timestamp":"2025-09-02T00:13:41.573040Z","level":"info","event":"\tlinminMethod         DirUpdateRecommended \\","chan":"stdout","logger":"task"}
{"timestamp":"2025-09-02T00:13:41.573583Z","level":"info","event":"\tnIterations          30 \\","chan":"stdout","logger":"task"}
{"timestamp":"2025-09-02T00:13:41.574062Z","level":"info","event":"\thistory              15 \\","chan":"stdout","logger":"task"}
{"timestamp":"2025-09-02T00:13:41.574480Z","level":"info","event":"\tknormThreshold       0 \\","chan":"stdout","logger":"task"}
{"timestamp":"2025-09-02T00:13:41.575360Z","level":"info","event":"\tmaxThreshold         no \\","chan":"stdout","logger":"task"}
{"timestamp":"2025-09-02T00:13:41.576520Z","level":"info","event":"\tenergyDiffThreshold  1e-05 \\","chan":"stdout","logger":"task"}
{"timestamp":"2025-09-02T00:13:41.578621Z","level":"info","event":"\tnEnergyDiff          2 \\","chan":"stdout","logger":"task"}
{"timestamp":"2025-09-02T00:13:41.579419Z","level":"info","event":"\tconvergeAll          no \\","chan":"stdout","logger":"task"}
{"timestamp":"2025-09-02T00:13:41.579830Z","level":"info","event":"\talphaTstart          1 \\","chan":"stdout","logger":"task"}
{"timestamp":"2025-09-02T00:13:41.580624Z","level":"info","event":"\talphaTmin            1e-10 \\","chan":"stdout","logger":"task"}
{"timestamp":"2025-09-02T00:13:41.581062Z","level":"info","event":"\tupdateTestStepSize   yes \\","chan":"stdout","logger":"task"}
{"timestamp":"2025-09-02T00:13:41.581740Z","level":"info","event":"\talphaTreduceFactor   0.1 \\","chan":"stdout","logger":"task"}
{"timestamp":"2025-09-02T00:13:41.582312Z","level":"info","event":"\talphaTincreaseFactor 3 \\","chan":"stdout","logger":"task"}
{"timestamp":"2025-09-02T00:13:41.584017Z","level":"info","event":"\tnAlphaAdjustMax      3 \\","chan":"stdout","logger":"task"}
{"timestamp":"2025-09-02T00:13:41.587521Z","level":"info","event":"\twolfeEnergy          0.0001 \\","chan":"stdout","logger":"task"}
{"timestamp":"2025-09-02T00:13:41.588030Z","level":"info","event":"\twolfeGradient        0.9 \\","chan":"stdout","logger":"task"}
{"timestamp":"2025-09-02T00:13:41.589235Z","level":"info","event":"\tabortOnFailedStep    no \\","chan":"stdout","logger":"task"}
{"timestamp":"2025-09-02T00:13:41.589692Z","level":"info","event":"\tfdTest               no","chan":"stdout","logger":"task"}
{"timestamp":"2025-09-02T00:13:41.590105Z","level":"info","event":"exchange-regularization WignerSeitzTruncated","chan":"stdout","logger":"task"}
{"timestamp":"2025-09-02T00:13:41.590697Z","level":"info","event":"fluid LinearPCM 298.000000 1.013250","chan":"stdout","logger":"task"}
{"timestamp":"2025-09-02T00:13:41.591393Z","level":"info","event":"fluid-anion F- 1 MeanFieldLJ \\","chan":"stdout","logger":"task"}
{"timestamp":"2025-09-02T00:13:41.592503Z","level":"info","event":"\tepsBulk 1 \\","chan":"stdout","logger":"task"}
{"timestamp":"2025-09-02T00:13:41.593107Z","level":"info","event":"\tpMol 0 \\","chan":"stdout","logger":"task"}
{"timestamp":"2025-09-02T00:13:41.593460Z","level":"info","event":"\tepsInf 1 \\","chan":"stdout","logger":"task"}
{"timestamp":"2025-09-02T00:13:41.593857Z","level":"info","event":"\tPvap 0 \\","chan":"stdout","logger":"task"}
{"timestamp":"2025-09-02T00:13:41.594192Z","level":"info","event":"\tsigmaBulk 0 \\","chan":"stdout","logger":"task"}
{"timestamp":"2025-09-02T00:13:41.594555Z","level":"info","event":"\tRvdw 2.24877 \\","chan":"stdout","logger":"task"}
{"timestamp":"2025-09-02T00:13:41.594893Z","level":"info","event":"\tRes 0 \\","chan":"stdout","logger":"task"}
{"timestamp":"2025-09-02T00:13:41.595495Z","level":"info","event":"\ttauNuc 343133","chan":"stdout","logger":"task"}
{"timestamp":"2025-09-02T00:13:41.596791Z","level":"info","event":"fluid-cation Na+ 1 MeanFieldLJ \\","chan":"stdout","logger":"task"}
{"timestamp":"2025-09-02T00:13:41.597487Z","level":"info","event":"\tepsBulk 1 \\","chan":"stdout","logger":"task"}
{"timestamp":"2025-09-02T00:13:41.598259Z","level":"info","event":"\tpMol 0 \\","chan":"stdout","logger":"task"}
{"timestamp":"2025-09-02T00:13:41.605718Z","level":"info","event":"\tepsInf 1 \\","chan":"stdout","logger":"task"}
{"timestamp":"2025-09-02T00:13:41.606286Z","level":"info","event":"\tPvap 0 \\","chan":"stdout","logger":"task"}
{"timestamp":"2025-09-02T00:13:41.606780Z","level":"info","event":"\tsigmaBulk 0 \\","chan":"stdout","logger":"task"}
{"timestamp":"2025-09-02T00:13:41.607100Z","level":"info","event":"\tRvdw 2.19208 \\","chan":"stdout","logger":"task"}
{"timestamp":"2025-09-02T00:13:41.607333Z","level":"info","event":"\tRes 0 \\","chan":"stdout","logger":"task"}
{"timestamp":"2025-09-02T00:13:41.607542Z","level":"info","event":"\ttauNuc 343133","chan":"stdout","logger":"task"}
{"timestamp":"2025-09-02T00:13:41.608032Z","level":"info","event":"fluid-ex-corr lda-TF lda-PZ","chan":"stdout","logger":"task"}
{"timestamp":"2025-09-02T00:13:41.614199Z","level":"info","event":"fluid-gummel-loop 10 1.000000e-05","chan":"stdout","logger":"task"}
{"timestamp":"2025-09-02T00:13:41.617937Z","level":"info","event":"fluid-minimize  \\","chan":"stdout","logger":"task"}
{"timestamp":"2025-09-02T00:13:41.618343Z","level":"info","event":"\tdirUpdateScheme      PolakRibiere \\","chan":"stdout","logger":"task"}
{"timestamp":"2025-09-02T00:13:41.618632Z","level":"info","event":"\tlinminMethod         DirUpdateRecommended \\","chan":"stdout","logger":"task"}
{"timestamp":"2025-09-02T00:13:41.621709Z","level":"info","event":"\tnIterations          400 \\","chan":"stdout","logger":"task"}
{"timestamp":"2025-09-02T00:13:41.622102Z","level":"info","event":"\thistory              15 \\","chan":"stdout","logger":"task"}
{"timestamp":"2025-09-02T00:13:41.622740Z","level":"info","event":"\tknormThreshold       1e-11 \\","chan":"stdout","logger":"task"}
{"timestamp":"2025-09-02T00:13:41.625708Z","level":"info","event":"\tmaxThreshold         no \\","chan":"stdout","logger":"task"}
{"timestamp":"2025-09-02T00:13:41.628952Z","level":"info","event":"\tenergyDiffThreshold  0 \\","chan":"stdout","logger":"task"}
{"timestamp":"2025-09-02T00:13:41.633146Z","level":"info","event":"\tnEnergyDiff          2 \\","chan":"stdout","logger":"task"}
{"timestamp":"2025-09-02T00:13:41.633718Z","level":"info","event":"\tconvergeAll          no \\","chan":"stdout","logger":"task"}
{"timestamp":"2025-09-02T00:13:41.634322Z","level":"info","event":"\talphaTstart          1 \\","chan":"stdout","logger":"task"}
{"timestamp":"2025-09-02T00:13:41.635690Z","level":"info","event":"\talphaTmin            1e-10 \\","chan":"stdout","logger":"task"}
{"timestamp":"2025-09-02T00:13:41.636408Z","level":"info","event":"\tupdateTestStepSize   yes \\","chan":"stdout","logger":"task"}
{"timestamp":"2025-09-02T00:13:41.637040Z","level":"info","event":"\talphaTreduceFactor   0.1 \\","chan":"stdout","logger":"task"}
{"timestamp":"2025-09-02T00:13:41.637743Z","level":"info","event":"\talphaTincreaseFactor 3 \\","chan":"stdout","logger":"task"}
{"timestamp":"2025-09-02T00:13:41.638098Z","level":"info","event":"\tnAlphaAdjustMax      6 \\","chan":"stdout","logger":"task"}
{"timestamp":"2025-09-02T00:13:41.638414Z","level":"info","event":"\twolfeEnergy          0.0001 \\","chan":"stdout","logger":"task"}
{"timestamp":"2025-09-02T00:13:41.638792Z","level":"info","event":"\twolfeGradient        0.9 \\","chan":"stdout","logger":"task"}
{"timestamp":"2025-09-02T00:13:41.639217Z","level":"info","event":"\tabortOnFailedStep    no \\","chan":"stdout","logger":"task"}
{"timestamp":"2025-09-02T00:13:41.639566Z","level":"info","event":"\tfdTest               no","chan":"stdout","logger":"task"}
{"timestamp":"2025-09-02T00:13:41.640246Z","level":"info","event":"fluid-solvent H2O 55.338 ScalarEOS \\","chan":"stdout","logger":"task"}
{"timestamp":"2025-09-02T00:13:41.640720Z","level":"info","event":"\tepsBulk 78.4 \\","chan":"stdout","logger":"task"}
{"timestamp":"2025-09-02T00:13:41.641034Z","level":"info","event":"\tpMol 0.92466 \\","chan":"stdout","logger":"task"}
{"timestamp":"2025-09-02T00:13:41.641272Z","level":"info","event":"\tepsInf 1.77 \\","chan":"stdout","logger":"task"}
{"timestamp":"2025-09-02T00:13:41.641581Z","level":"info","event":"\tPvap 1.06736e-10 \\","chan":"stdout","logger":"task"}
{"timestamp":"2025-09-02T00:13:41.645696Z","level":"info","event":"\tsigmaBulk 4.62e-05 \\","chan":"stdout","logger":"task"}
{"timestamp":"2025-09-02T00:13:41.650070Z","level":"info","event":"\tRvdw 2.61727 \\","chan":"stdout","logger":"task"}
{"timestamp":"2025-09-02T00:13:41.650577Z","level":"info","event":"\tRes 1.42 \\","chan":"stdout","logger":"task"}
{"timestamp":"2025-09-02T00:13:41.651518Z","level":"info","event":"\ttauNuc 343133 \\","chan":"stdout","logger":"task"}
{"timestamp":"2025-09-02T00:13:41.651866Z","level":"info","event":"\tpoleEl 15 7 1","chan":"stdout","logger":"task"}
{"timestamp":"2025-09-02T00:13:41.652138Z","level":"info","event":"forces-output-coords Positions","chan":"stdout","logger":"task"}
{"timestamp":"2025-09-02T00:13:41.652430Z","level":"info","event":"initial-state $VAR","chan":"stdout","logger":"task"}
{"timestamp":"2025-09-02T00:13:41.652848Z","level":"info","event":"ion V   0.000000000000000   9.808292000000002  18.773380000000000 1","chan":"stdout","logger":"task"}
{"timestamp":"2025-09-02T00:13:41.653291Z","level":"info","event":"ion V   0.000000000000000   0.000000000000000  24.383316000000001 1","chan":"stdout","logger":"task"}
{"timestamp":"2025-09-02T00:13:41.653709Z","level":"info","event":"ion V   0.000000000000000   9.808292000000002  24.383316000000001 1","chan":"stdout","logger":"task"}
{"timestamp":"2025-09-02T00:13:41.655774Z","level":"info","event":"ion V   0.000000000000000   0.000000000000000  29.993252999999999 1","chan":"stdout","logger":"task"}
{"timestamp":"2025-09-02T00:13:41.656187Z","level":"info","event":"ion V   0.000000000000000   9.808292000000002  29.993252999999996 1","chan":"stdout","logger":"task"}
{"timestamp":"2025-09-02T00:13:41.656462Z","level":"info","event":"ion V   0.000000000000000   0.000000000000000  35.603189000000000 1","chan":"stdout","logger":"task"}
{"timestamp":"2025-09-02T00:13:41.656701Z","level":"info","event":"ion V   0.000000000000000   9.808292000000002  35.603189000000000 1","chan":"stdout","logger":"task"}
{"timestamp":"2025-09-02T00:13:41.656973Z","level":"info","event":"ion V   0.000000000000000   0.000000000000000  41.213126000000003 1","chan":"stdout","logger":"task"}
{"timestamp":"2025-09-02T00:13:41.657245Z","level":"info","event":"ion O   3.238900000000000  11.598168000000001  13.163439000000000 1","chan":"stdout","logger":"task"}
{"timestamp":"2025-09-02T00:13:41.657543Z","level":"info","event":"ion O   3.238900000000000  17.826708000000000  13.163439000000000 1","chan":"stdout","logger":"task"}
{"timestamp":"2025-09-02T00:13:41.657879Z","level":"info","event":"ion O   3.238900000000000  11.598168000000001  18.773376000000003 1","chan":"stdout","logger":"task"}
{"timestamp":"2025-09-02T00:13:41.658114Z","level":"info","event":"ion O   3.238900000000000  17.826708000000000  18.773376000000003 1","chan":"stdout","logger":"task"}
{"timestamp":"2025-09-02T00:13:41.658320Z","level":"info","event":"ion O   1.619447000000000   8.018416000000002  21.578350000000000 1","chan":"stdout","logger":"task"}
{"timestamp":"2025-09-02T00:13:41.661500Z","level":"info","event":"ion O   1.619447000000000   1.789876000000000  21.578350000000000 1","chan":"stdout","logger":"task"}
{"timestamp":"2025-09-02T00:13:41.662946Z","level":"info","event":"ion O   3.238900000000000  11.598168000000001  24.383312999999998 1","chan":"stdout","logger":"task"}
{"timestamp":"2025-09-02T00:13:41.663315Z","level":"info","event":"ion O   3.238900000000000  17.826708000000000  24.383313000000008 1","chan":"stdout","logger":"task"}
{"timestamp":"2025-09-02T00:13:41.663591Z","level":"info","event":"ion O   1.619447000000000   8.018416000000002  27.188287000000003 1","chan":"stdout","logger":"task"}
{"timestamp":"2025-09-02T00:13:41.663840Z","level":"info","event":"ion O   1.619447000000000   1.789876000000000  27.188286999999999 1","chan":"stdout","logger":"task"}
{"timestamp":"2025-09-02T00:13:41.664091Z","level":"info","event":"ion O   3.238900000000000  11.598168000000001  29.993249000000002 1","chan":"stdout","logger":"task"}
{"timestamp":"2025-09-02T00:13:41.664323Z","level":"info","event":"ion O   3.238900000000000  17.826708000000000  29.993248999999999 1","chan":"stdout","logger":"task"}
{"timestamp":"2025-09-02T00:13:41.664677Z","level":"info","event":"ion O   1.619447000000000   8.018416000000002  32.798223000000007 1","chan":"stdout","logger":"task"}
{"timestamp":"2025-09-02T00:13:41.665105Z","level":"info","event":"ion O   1.619447000000000   1.789876000000000  32.798223000000000 1","chan":"stdout","logger":"task"}
{"timestamp":"2025-09-02T00:13:41.665349Z","level":"info","event":"ion-species GBRV/$ID_pbe.uspp","chan":"stdout","logger":"task"}
{"timestamp":"2025-09-02T00:13:41.665556Z","level":"info","event":"ion-width Ecut","chan":"stdout","logger":"task"}
{"timestamp":"2025-09-02T00:13:41.665773Z","level":"info","event":"ionic-minimize  \\","chan":"stdout","logger":"task"}
{"timestamp":"2025-09-02T00:13:41.665980Z","level":"info","event":"\tdirUpdateScheme      L-BFGS \\","chan":"stdout","logger":"task"}
{"timestamp":"2025-09-02T00:13:41.666292Z","level":"info","event":"\tlinminMethod         DirUpdateRecommended \\","chan":"stdout","logger":"task"}
{"timestamp":"2025-09-02T00:13:41.666529Z","level":"info","event":"\tnIterations          0 \\","chan":"stdout","logger":"task"}
{"timestamp":"2025-09-02T00:13:41.666890Z","level":"info","event":"\thistory              15 \\","chan":"stdout","logger":"task"}
{"timestamp":"2025-09-02T00:13:41.667234Z","level":"info","event":"\tknormThreshold       0.0001 \\","chan":"stdout","logger":"task"}
{"timestamp":"2025-09-02T00:13:41.667506Z","level":"info","event":"\tmaxThreshold         no \\","chan":"stdout","logger":"task"}
{"timestamp":"2025-09-02T00:13:41.667797Z","level":"info","event":"\tenergyDiffThreshold  1e-06 \\","chan":"stdout","logger":"task"}
{"timestamp":"2025-09-02T00:13:41.669689Z","level":"info","event":"\tnEnergyDiff          2 \\","chan":"stdout","logger":"task"}
{"timestamp":"2025-09-02T00:13:41.670099Z","level":"info","event":"\tconvergeAll          no \\","chan":"stdout","logger":"task"}
{"timestamp":"2025-09-02T00:13:41.670411Z","level":"info","event":"\talphaTstart          1 \\","chan":"stdout","logger":"task"}
{"timestamp":"2025-09-02T00:13:41.670602Z","level":"info","event":"\talphaTmin            1e-10 \\","chan":"stdout","logger":"task"}
{"timestamp":"2025-09-02T00:13:41.670775Z","level":"info","event":"\tupdateTestStepSize   yes \\","chan":"stdout","logger":"task"}
{"timestamp":"2025-09-02T00:13:41.670938Z","level":"info","event":"\talphaTreduceFactor   0.1 \\","chan":"stdout","logger":"task"}
{"timestamp":"2025-09-02T00:13:41.671096Z","level":"info","event":"\talphaTincreaseFactor 3 \\","chan":"stdout","logger":"task"}
{"timestamp":"2025-09-02T00:13:41.671253Z","level":"info","event":"\tnAlphaAdjustMax      3 \\","chan":"stdout","logger":"task"}
{"timestamp":"2025-09-02T00:13:41.671410Z","level":"info","event":"\twolfeEnergy          0.0001 \\","chan":"stdout","logger":"task"}
{"timestamp":"2025-09-02T00:13:41.671559Z","level":"info","event":"\twolfeGradient        0.9 \\","chan":"stdout","logger":"task"}
{"timestamp":"2025-09-02T00:13:41.671723Z","level":"info","event":"\tabortOnFailedStep    no \\","chan":"stdout","logger":"task"}
{"timestamp":"2025-09-02T00:13:41.671879Z","level":"info","event":"\tfdTest               no","chan":"stdout","logger":"task"}
{"timestamp":"2025-09-02T00:13:41.672032Z","level":"info","event":"kpoint   0.500000000000   0.500000000000   0.500000000000  1.00000000000000","chan":"stdout","logger":"task"}
{"timestamp":"2025-09-02T00:13:41.672185Z","level":"info","event":"kpoint-folding 1 1 1","chan":"stdout","logger":"task"}
{"timestamp":"2025-09-02T00:13:41.672347Z","level":"info","event":"latt-move-scale 1 1 1","chan":"stdout","logger":"task"}
{"timestamp":"2025-09-02T00:13:41.672512Z","level":"info","event":"latt-scale 1 1 1","chan":"stdout","logger":"task"}
{"timestamp":"2025-09-02T00:13:41.672681Z","level":"info","event":"lattice  \\","chan":"stdout","logger":"task"}
{"timestamp":"2025-09-02T00:13:41.672839Z","level":"info","event":"\t   4.858347000000000    0.000000000000000    0.000000000000000  \\","chan":"stdout","logger":"task"}
{"timestamp":"2025-09-02T00:13:41.673573Z","level":"info","event":"\t   0.000000000000000   19.616584000000000    0.000000000000000  \\","chan":"stdout","logger":"task"}
{"timestamp":"2025-09-02T00:13:41.673877Z","level":"info","event":"\t  -8.414906000000000   -5.609937000000000   61.709302000000001","chan":"stdout","logger":"task"}
{"timestamp":"2025-09-02T00:13:41.674076Z","level":"info","event":"lattice-minimize  \\","chan":"stdout","logger":"task"}
{"timestamp":"2025-09-02T00:13:41.674254Z","level":"info","event":"\tdirUpdateScheme      L-BFGS \\","chan":"stdout","logger":"task"}
{"timestamp":"2025-09-02T00:13:41.677713Z","level":"info","event":"\tlinminMethod         DirUpdateRecommended \\","chan":"stdout","logger":"task"}
{"timestamp":"2025-09-02T00:13:41.678114Z","level":"info","event":"\tnIterations          0 \\","chan":"stdout","logger":"task"}
{"timestamp":"2025-09-02T00:13:41.681852Z","level":"info","event":"\thistory              15 \\","chan":"stdout","logger":"task"}
{"timestamp":"2025-09-02T00:13:41.682544Z","level":"info","event":"\tknormThreshold       0 \\","chan":"stdout","logger":"task"}
{"timestamp":"2025-09-02T00:13:41.682955Z","level":"info","event":"\tmaxThreshold         no \\","chan":"stdout","logger":"task"}
{"timestamp":"2025-09-02T00:13:41.683244Z","level":"info","event":"\tenergyDiffThreshold  1e-06 \\","chan":"stdout","logger":"task"}
{"timestamp":"2025-09-02T00:13:41.683585Z","level":"info","event":"\tnEnergyDiff          2 \\","chan":"stdout","logger":"task"}
{"timestamp":"2025-09-02T00:13:41.684213Z","level":"info","event":"\tconvergeAll          no \\","chan":"stdout","logger":"task"}
{"timestamp":"2025-09-02T00:13:41.684541Z","level":"info","event":"\talphaTstart          1 \\","chan":"stdout","logger":"task"}
{"timestamp":"2025-09-02T00:13:41.684797Z","level":"info","event":"\talphaTmin            1e-10 \\","chan":"stdout","logger":"task"}
{"timestamp":"2025-09-02T00:13:41.685109Z","level":"info","event":"\tupdateTestStepSize   yes \\","chan":"stdout","logger":"task"}
{"timestamp":"2025-09-02T00:13:41.685346Z","level":"info","event":"\talphaTreduceFactor   0.1 \\","chan":"stdout","logger":"task"}
{"timestamp":"2025-09-02T00:13:41.685592Z","level":"info","event":"\talphaTincreaseFactor 3 \\","chan":"stdout","logger":"task"}
{"timestamp":"2025-09-02T00:13:41.685941Z","level":"info","event":"\tnAlphaAdjustMax      3 \\","chan":"stdout","logger":"task"}
{"timestamp":"2025-09-02T00:13:41.686221Z","level":"info","event":"\twolfeEnergy          0.0001 \\","chan":"stdout","logger":"task"}
{"timestamp":"2025-09-02T00:13:41.686975Z","level":"info","event":"\twolfeGradient        0.9 \\","chan":"stdout","logger":"task"}
{"timestamp":"2025-09-02T00:13:41.687276Z","level":"info","event":"\tabortOnFailedStep    no \\","chan":"stdout","logger":"task"}
{"timestamp":"2025-09-02T00:13:41.687629Z","level":"info","event":"\tfdTest               no","chan":"stdout","logger":"task"}
{"timestamp":"2025-09-02T00:13:41.687886Z","level":"info","event":"lcao-params 15 5e-05 0.01","chan":"stdout","logger":"task"}
{"timestamp":"2025-09-02T00:13:41.689295Z","level":"info","event":"pcm-variant CANDLE","chan":"stdout","logger":"task"}
{"timestamp":"2025-09-02T00:13:41.689829Z","level":"info","event":"perturb-minimize  \\","chan":"stdout","logger":"task"}
{"timestamp":"2025-09-02T00:13:41.693700Z","level":"info","event":"\tnIterations            0 \\","chan":"stdout","logger":"task"}
{"timestamp":"2025-09-02T00:13:41.694125Z","level":"info","event":"\talgorithm              MINRES \\","chan":"stdout","logger":"task"}
{"timestamp":"2025-09-02T00:13:41.694547Z","level":"info","event":"\tresidualTol            0.0001 \\","chan":"stdout","logger":"task"}
{"timestamp":"2025-09-02T00:13:41.694912Z","level":"info","event":"\tresidualDiffThreshold  0.0001 \\","chan":"stdout","logger":"task"}
{"timestamp":"2025-09-02T00:13:41.695541Z","level":"info","event":"\tCGBypass               no \\","chan":"stdout","logger":"task"}
{"timestamp":"2025-09-02T00:13:41.696006Z","level":"info","event":"\trecomputeResidual      no","chan":"stdout","logger":"task"}
{"timestamp":"2025-09-02T00:13:41.697245Z","level":"info","event":"spintype no-spin","chan":"stdout","logger":"task"}
{"timestamp":"2025-09-02T00:13:41.698452Z","level":"info","event":"subspace-rotation-factor 1 yes","chan":"stdout","logger":"task"}
{"timestamp":"2025-09-02T00:13:41.698902Z","level":"info","event":"symmetries automatic","chan":"stdout","logger":"task"}
{"timestamp":"2025-09-02T00:13:41.699383Z","level":"info","event":"symmetry-threshold 0.0001","chan":"stdout","logger":"task"}
{"timestamp":"2025-09-02T00:13:41.700656Z","level":"info","event":"","chan":"stdout","logger":"task"}
{"timestamp":"2025-09-02T00:13:41.701058Z","level":"info","event":"","chan":"stdout","logger":"task"}
{"timestamp":"2025-09-02T00:13:41.701399Z","level":"info","event":"","chan":"stdout","logger":"task"}
{"timestamp":"2025-09-02T00:13:41.702873Z","level":"info","event":"---------- Setting up symmetries ----------","chan":"stdout","logger":"task"}
{"timestamp":"2025-09-02T00:13:41.703726Z","level":"info","event":"","chan":"stdout","logger":"task"}
{"timestamp":"2025-09-02T00:13:41.704310Z","level":"info","event":"Non-trivial transmission matrix:","chan":"stdout","logger":"task"}
{"timestamp":"2025-09-02T00:13:41.706817Z","level":"info","event":"[   1   0   5  ]","chan":"stdout","logger":"task"}
{"timestamp":"2025-09-02T00:13:41.707203Z","level":"info","event":"[   0   1   0  ]","chan":"stdout","logger":"task"}
{"timestamp":"2025-09-02T00:13:41.707610Z","level":"info","event":"[   0   0   1  ]","chan":"stdout","logger":"task"}
{"timestamp":"2025-09-02T00:13:41.708091Z","level":"info","event":"with reduced lattice vectors:","chan":"stdout","logger":"task"}
{"timestamp":"2025-09-02T00:13:41.708414Z","level":"info","event":"[      4.858347      0.000000     24.291735  ]","chan":"stdout","logger":"task"}
{"timestamp":"2025-09-02T00:13:41.708696Z","level":"info","event":"[      0.000000     19.616584      0.000000  ]","chan":"stdout","logger":"task"}
{"timestamp":"2025-09-02T00:13:41.708952Z","level":"info","event":"[     -8.414906     -5.609937     19.634772  ]","chan":"stdout","logger":"task"}
{"timestamp":"2025-09-02T00:13:41.709205Z","level":"info","event":"","chan":"stdout","logger":"task"}
{"timestamp":"2025-09-02T00:13:41.709452Z","level":"info","event":"Found 4 point-group symmetries of the bravais lattice","chan":"stdout","logger":"task"}
{"timestamp":"2025-09-02T00:13:41.709707Z","level":"info","event":"Found 2 space-group symmetries with basis","chan":"stdout","logger":"task"}
{"timestamp":"2025-09-02T00:13:41.709995Z","level":"info","event":"Applied RMS atom displacement 3.8122e-07 bohrs to make symmetries exact.","chan":"stdout","logger":"task"}
{"timestamp":"2025-09-02T00:13:42.650509Z","level":"info","event":"","chan":"stdout","logger":"task"}
{"timestamp":"2025-09-02T00:13:42.651359Z","level":"info","event":"---------- Initializing the Grid ----------","chan":"stdout","logger":"task"}
{"timestamp":"2025-09-02T00:13:42.651872Z","level":"info","event":"R =","chan":"stdout","logger":"task"}
{"timestamp":"2025-09-02T00:13:42.652948Z","level":"info","event":"[      4.85835            0            0  ]","chan":"stdout","logger":"task"}
{"timestamp":"2025-09-02T00:13:42.653284Z","level":"info","event":"[            0      19.6166            0  ]","chan":"stdout","logger":"task"}
{"timestamp":"2025-09-02T00:13:42.653667Z","level":"info","event":"[     -8.41491     -5.60994      61.7093  ]","chan":"stdout","logger":"task"}
{"timestamp":"2025-09-02T00:13:42.654010Z","level":"info","event":"unit cell volume = 5881.15","chan":"stdout","logger":"task"}
{"timestamp":"2025-09-02T00:13:42.654378Z","level":"info","event":"G =","chan":"stdout","logger":"task"}
{"timestamp":"2025-09-02T00:13:42.654720Z","level":"info","event":"[    1.29328         -0          0  ]","chan":"stdout","logger":"task"}
{"timestamp":"2025-09-02T00:13:42.655039Z","level":"info","event":"[         -0     0.3203          0  ]","chan":"stdout","logger":"task"}
{"timestamp":"2025-09-02T00:13:42.655359Z","level":"info","event":"[   0.176356  0.0291182   0.101819  ]","chan":"stdout","logger":"task"}
{"timestamp":"2025-09-02T00:13:42.656597Z","level":"info","event":"Minimum fftbox size, Smin = [  20  44  128  ]","chan":"stdout","logger":"task"}
{"timestamp":"2025-09-02T00:13:42.657006Z","level":"info","event":"WARNING: Symmetries require anisotropic S to include FFT-unsupported factors. Falling back to isotropic solution.","chan":"stdout","logger":"task"}
{"timestamp":"2025-09-02T00:13:42.657392Z","level":"info","event":"Chosen fftbox size, S = [  128  128  128  ]","chan":"stdout","logger":"task"}
{"timestamp":"2025-09-02T00:13:42.657765Z","level":"info","event":"","chan":"stdout","logger":"task"}
{"timestamp":"2025-09-02T00:13:42.658708Z","level":"info","event":"---------- Exchange Correlation functional ----------","chan":"stdout","logger":"task"}
{"timestamp":"2025-09-02T00:13:42.659009Z","level":"info","event":"Initalized PBE GGA exchange.","chan":"stdout","logger":"task"}
{"timestamp":"2025-09-02T00:13:42.659320Z","level":"info","event":"Initalized PBE GGA correlation.","chan":"stdout","logger":"task"}
{"timestamp":"2025-09-02T00:13:42.659696Z","level":"info","event":"","chan":"stdout","logger":"task"}
{"timestamp":"2025-09-02T00:13:42.661124Z","level":"info","event":"---------- Setting up pseudopotentials ----------","chan":"stdout","logger":"task"}
{"timestamp":"2025-09-02T00:13:42.661405Z","level":"info","event":"Width of ionic core gaussian charges (only for fluid interactions / plotting) set to 0.794767","chan":"stdout","logger":"task"}
{"timestamp":"2025-09-02T00:13:42.661755Z","level":"info","event":"","chan":"stdout","logger":"task"}
{"timestamp":"2025-09-02T00:13:42.662139Z","level":"info","event":"Reading pseudopotential file '/opt/jdftx-master/build/pseudopotentials/GBRV/v_pbe.uspp':","chan":"stdout","logger":"task"}
{"timestamp":"2025-09-02T00:13:42.662690Z","level":"info","event":"  Title: V.  Created by USPP 7.3.6 on 31-3-15","chan":"stdout","logger":"task"}
{"timestamp":"2025-09-02T00:13:42.663036Z","level":"info","event":"  Reference state energy: -72.228583.  13 valence electrons in orbitals:","chan":"stdout","logger":"task"}
{"timestamp":"2025-09-02T00:13:42.663387Z","level":"info","event":"    |300>  occupation: 2  eigenvalue: -2.581040","chan":"stdout","logger":"task"}
{"timestamp":"2025-09-02T00:13:42.663790Z","level":"info","event":"    |310>  occupation: 6  eigenvalue: -1.618497","chan":"stdout","logger":"task"}
{"timestamp":"2025-09-02T00:13:42.664125Z","level":"info","event":"    |400>  occupation: 2  eigenvalue: -0.172800","chan":"stdout","logger":"task"}
{"timestamp":"2025-09-02T00:13:42.665900Z","level":"info","event":"    |320>  occupation: 3  eigenvalue: -0.189802","chan":"stdout","logger":"task"}
{"timestamp":"2025-09-02T00:13:42.666315Z","level":"info","event":"  lMax: 2  lLocal: 3  QijEcut: 6","chan":"stdout","logger":"task"}
{"timestamp":"2025-09-02T00:13:42.666718Z","level":"info","event":"  6 projectors sampled on a log grid with 593 points:","chan":"stdout","logger":"task"}
{"timestamp":"2025-09-02T00:13:42.667777Z","level":"info","event":"    l: 0  eig: -2.581041  rCut: 1.5","chan":"stdout","logger":"task"}
{"timestamp":"2025-09-02T00:13:42.668190Z","level":"info","event":"    l: 0  eig: -0.172801  rCut: 1.5","chan":"stdout","logger":"task"}
{"timestamp":"2025-09-02T00:13:42.668542Z","level":"info","event":"    l: 1  eig: -1.618497  rCut: 1.6","chan":"stdout","logger":"task"}
{"timestamp":"2025-09-02T00:13:42.668833Z","level":"info","event":"    l: 1  eig: 0.150000  rCut: 1.6","chan":"stdout","logger":"task"}
{"timestamp":"2025-09-02T00:13:42.669140Z","level":"info","event":"    l: 2  eig: -0.189802  rCut: 1.7","chan":"stdout","logger":"task"}
{"timestamp":"2025-09-02T00:13:42.669533Z","level":"info","event":"    l: 2  eig: 0.150000  rCut: 1.7","chan":"stdout","logger":"task"}
{"timestamp":"2025-09-02T00:13:42.673750Z","level":"info","event":"  Partial core density with radius 0.8","chan":"stdout","logger":"task"}
{"timestamp":"2025-09-02T00:13:42.674186Z","level":"info","event":"  Transforming core density to a uniform radial grid of dG=0.02 with 4850 points.","chan":"stdout","logger":"task"}
{"timestamp":"2025-09-02T00:13:42.674498Z","level":"info","event":"  Transforming local potential to a uniform radial grid of dG=0.02 with 4850 points.","chan":"stdout","logger":"task"}
{"timestamp":"2025-09-02T00:13:42.674863Z","level":"info","event":"  Transforming nonlocal projectors to a uniform radial grid of dG=0.02 with 219 points.","chan":"stdout","logger":"task"}
{"timestamp":"2025-09-02T00:13:42.675188Z","level":"info","event":"  Transforming density augmentations to a uniform radial grid of dG=0.02 with 4850 points.","chan":"stdout","logger":"task"}
{"timestamp":"2025-09-02T00:13:42.675531Z","level":"info","event":"  Transforming atomic orbitals to a uniform radial grid of dG=0.02 with 219 points.","chan":"stdout","logger":"task"}
{"timestamp":"2025-09-02T00:13:43.272332Z","level":"info","event":"  Core radius for overlap checks: 1.80 bohrs.","chan":"stdout","logger":"task"}
{"timestamp":"2025-09-02T00:13:43.273117Z","level":"info","event":"","chan":"stdout","logger":"task"}
{"timestamp":"2025-09-02T00:13:43.273527Z","level":"info","event":"Reading pseudopotential file '/opt/jdftx-master/build/pseudopotentials/GBRV/o_pbe.uspp':","chan":"stdout","logger":"task"}
{"timestamp":"2025-09-02T00:13:43.274038Z","level":"info","event":"  Title: O.  Created by USPP 7.3.6 on 3-2-2014","chan":"stdout","logger":"task"}
{"timestamp":"2025-09-02T00:13:43.274395Z","level":"info","event":"  Reference state energy: -15.894388.  6 valence electrons in orbitals:","chan":"stdout","logger":"task"}
{"timestamp":"2025-09-02T00:13:43.274672Z","level":"info","event":"    |200>  occupation: 2  eigenvalue: -0.878823","chan":"stdout","logger":"task"}
{"timestamp":"2025-09-02T00:13:43.274876Z","level":"info","event":"    |210>  occupation: 4  eigenvalue: -0.332131","chan":"stdout","logger":"task"}
{"timestamp":"2025-09-02T00:13:43.275331Z","level":"info","event":"  lMax: 2  lLocal: 2  QijEcut: 6","chan":"stdout","logger":"task"}
{"timestamp":"2025-09-02T00:13:43.275695Z","level":"info","event":"  5 projectors sampled on a log grid with 511 points:","chan":"stdout","logger":"task"}
{"timestamp":"2025-09-02T00:13:43.276055Z","level":"info","event":"    l: 0  eig: -0.878823  rCut: 1.25","chan":"stdout","logger":"task"}
{"timestamp":"2025-09-02T00:13:43.276491Z","level":"info","event":"    l: 0  eig: 0.000000  rCut: 1.25","chan":"stdout","logger":"task"}
{"timestamp":"2025-09-02T00:13:43.279354Z","level":"info","event":"    l: 1  eig: -0.332132  rCut: 1.25","chan":"stdout","logger":"task"}
{"timestamp":"2025-09-02T00:13:43.280094Z","level":"info","event":"    l: 1  eig: 0.000000  rCut: 1.25","chan":"stdout","logger":"task"}
{"timestamp":"2025-09-02T00:13:43.282469Z","level":"info","event":"    l: 2  eig: 1.000000  rCut: 1.25","chan":"stdout","logger":"task"}
{"timestamp":"2025-09-02T00:13:43.282883Z","level":"info","event":"  Partial core density with radius 0.7","chan":"stdout","logger":"task"}
{"timestamp":"2025-09-02T00:13:43.283336Z","level":"info","event":"  Transforming core density to a uniform radial grid of dG=0.02 with 4850 points.","chan":"stdout","logger":"task"}
{"timestamp":"2025-09-02T00:13:43.283722Z","level":"info","event":"  Transforming local potential to a uniform radial grid of dG=0.02 with 4850 points.","chan":"stdout","logger":"task"}
{"timestamp":"2025-09-02T00:13:43.284068Z","level":"info","event":"  Transforming nonlocal projectors to a uniform radial grid of dG=0.02 with 219 points.","chan":"stdout","logger":"task"}
{"timestamp":"2025-09-02T00:13:43.284505Z","level":"info","event":"  Transforming density augmentations to a uniform radial grid of dG=0.02 with 4850 points.","chan":"stdout","logger":"task"}
{"timestamp":"2025-09-02T00:13:43.284878Z","level":"info","event":"  Transforming atomic orbitals to a uniform radial grid of dG=0.02 with 219 points.","chan":"stdout","logger":"task"}
{"timestamp":"2025-09-02T00:13:44.931817Z","level":"info","event":"  Core radius for overlap checks: 1.25 bohrs.","chan":"stdout","logger":"task"}
{"timestamp":"2025-09-02T00:13:44.932356Z","level":"info","event":"","chan":"stdout","logger":"task"}
{"timestamp":"2025-09-02T00:13:44.932793Z","level":"info","event":"Initialized 2 species with 22 total atoms.","chan":"stdout","logger":"task"}
{"timestamp":"2025-09-02T00:13:44.933366Z","level":"info","event":"","chan":"stdout","logger":"task"}
{"timestamp":"2025-09-02T00:13:44.933774Z","level":"info","event":"Folded 1 k-points by 1x1x1 to 1 k-points.","chan":"stdout","logger":"task"}
{"timestamp":"2025-09-02T00:13:44.934589Z","level":"info","event":"","chan":"stdout","logger":"task"}
{"timestamp":"2025-09-02T00:13:44.935159Z","level":"info","event":"---------- Setting up k-points, bands, fillings ----------","chan":"stdout","logger":"task"}
{"timestamp":"2025-09-02T00:13:44.935549Z","level":"info","event":"","chan":"stdout","logger":"task"}
{"timestamp":"2025-09-02T00:13:44.936005Z","level":"info","event":"WARNING: k-mesh symmetries are a subgroup of size 1","chan":"stdout","logger":"task"}
{"timestamp":"2025-09-02T00:13:44.936523Z","level":"info","event":"The effectively sampled k-mesh is a superset of the specified one,","chan":"stdout","logger":"task"}
{"timestamp":"2025-09-02T00:13:44.937799Z","level":"info","event":"and the answers need not match those with symmetries turned off.","chan":"stdout","logger":"task"}
{"timestamp":"2025-09-02T00:13:44.938345Z","level":"info","event":"No reducable k-points.","chan":"stdout","logger":"task"}
{"timestamp":"2025-09-02T00:13:44.938740Z","level":"info","event":"Computing the number of bands and number of electrons","chan":"stdout","logger":"task"}
{"timestamp":"2025-09-02T00:13:44.939117Z","level":"info","event":"Calculating initial fillings.","chan":"stdout","logger":"task"}
{"timestamp":"2025-09-02T00:13:44.939730Z","level":"info","event":"nElectrons: 187.900000   nBands: 136   nStates: 1","chan":"stdout","logger":"task"}
{"timestamp":"2025-09-02T00:13:44.940149Z","level":"info","event":"","chan":"stdout","logger":"task"}
{"timestamp":"2025-09-02T00:13:44.940647Z","level":"info","event":"----- Setting up reduced wavefunction bases (one per k-point) -----","chan":"stdout","logger":"task"}
{"timestamp":"2025-09-02T00:13:44.941165Z","level":"info","event":"average nbasis = 3164.000 , ideal nbasis = 3140.592","chan":"stdout","logger":"task"}
{"timestamp":"2025-09-02T00:13:48.529733Z","level":"info","event":"","chan":"stdout","logger":"task"}
{"timestamp":"2025-09-02T00:13:48.530132Z","level":"info","event":"Initializing DFT-D2 calculator for fluid / solvation:","chan":"stdout","logger":"task"}
{"timestamp":"2025-09-02T00:13:48.530858Z","level":"info","event":"\t V:  C6:  187.33 Eh-a0^6  R0: 2.952 a0","chan":"stdout","logger":"task"}
{"timestamp":"2025-09-02T00:13:48.531288Z","level":"info","event":"\t O:  C6:   12.14 Eh-a0^6  R0: 2.536 a0","chan":"stdout","logger":"task"}
{"timestamp":"2025-09-02T00:13:48.531980Z","level":"info","event":"","chan":"stdout","logger":"task"}
{"timestamp":"2025-09-02T00:13:48.532362Z","level":"info","event":"---------- Setting up ewald sum ----------","chan":"stdout","logger":"task"}
{"timestamp":"2025-09-02T00:13:48.532760Z","level":"info","event":"Optimum gaussian width for ewald sums = 4.322878 bohr.","chan":"stdout","logger":"task"}
{"timestamp":"2025-09-02T00:13:48.533118Z","level":"info","event":"Real space sum over 1323 unit cells with max indices [  10  4  3  ]","chan":"stdout","logger":"task"}
{"timestamp":"2025-09-02T00:13:48.533419Z","level":"info","event":"Reciprocal space sum over 9823 terms with max indices [  5  9  23  ]","chan":"stdout","logger":"task"}
{"timestamp":"2025-09-02T00:13:48.533807Z","level":"info","event":"","chan":"stdout","logger":"task"}
{"timestamp":"2025-09-02T00:13:48.534136Z","level":"info","event":"---------- Allocating electronic variables ----------","chan":"stdout","logger":"task"}
{"timestamp":"2025-09-02T00:15:38.003700Z","level":"info","event":"Initializing wave functions:  linear combination of atomic orbitals","chan":"stdout","logger":"task"}
{"timestamp":"2025-09-02T00:15:38.004231Z","level":"info","event":"V pseudo-atom occupations:   s ( 2 0 )  p ( 6 )  d ( 5 )","chan":"stdout","logger":"task"}
{"timestamp":"2025-09-02T00:15:38.004680Z","level":"info","event":"O pseudo-atom occupations:   s ( 2 )  p ( 4 )","chan":"stdout","logger":"task"}
{"timestamp":"2025-09-02T00:15:38.005220Z","level":"info","event":"\tFillingsUpdate:  mu: +0.442787529  nElectrons: 187.900000","chan":"stdout","logger":"task"}
{"timestamp":"2025-09-02T00:15:38.005669Z","level":"info","event":"LCAOMinimize: Iter:   0  F: -678.1266178958070441  |grad|_K:  8.092e-02  alpha:  1.000e+00","chan":"stdout","logger":"task"}
{"timestamp":"2025-09-02T00:16:28.583750Z","level":"info","event":"\tFillingsUpdate:  mu: +0.153455472  nElectrons: 187.900000","chan":"stdout","logger":"task"}
{"timestamp":"2025-09-02T00:16:28.584184Z","level":"info","event":"LCAOMinimize: Iter:   1  F: -721.0971861612227940  |grad|_K:  2.587e-02  alpha:  7.312e-01  linmin:  1.005e-01  cgtest: -2.847e+00  t[s]:    167.04","chan":"stdout","logger":"task"}
{"timestamp":"2025-09-02T00:16:43.740291Z","level":"info","event":"LCAOMinimize: \tWrong curvature in test step, increasing alphaT to 2.193732e+00.","chan":"stdout","logger":"task"}
{"timestamp":"2025-09-02T00:17:19.973806Z","level":"info","event":"\tFillingsUpdate:  mu: +0.028376266  nElectrons: 187.900000","chan":"stdout","logger":"task"}
{"timestamp":"2025-09-02T00:17:19.974582Z","level":"info","event":"LCAOMinimize: Iter:   2  F: -721.6022057031532313  |grad|_K:  2.502e-02  alpha: -1.684e+00  linmin:  5.757e-03  cgtest:  8.086e-01  t[s]:    218.43","chan":"stdout","logger":"task"}
{"timestamp":"2025-09-02T00:18:10.335894Z","level":"info","event":"\tFillingsUpdate:  mu: +0.021284937  nElectrons: 187.900000","chan":"stdout","logger":"task"}
{"timestamp":"2025-09-02T00:18:10.347281Z","level":"info","event":"LCAOMinimize: Iter:   3  F: -722.8773498662126258  |grad|_K:  2.700e-02  alpha:  9.206e-02  linmin: -7.316e-02  cgtest:  8.083e-01  t[s]:    268.80","chan":"stdout","logger":"task"}
{"timestamp":"2025-09-02T00:18:24.965878Z","level":"info","event":"LCAOMinimize: \tWrong curvature in test step, increasing alphaT to 2.761850e-01.","chan":"stdout","logger":"task"}
{"timestamp":"2025-09-02T00:19:00.871140Z","level":"info","event":"\tFillingsUpdate:  mu: -0.057160112  nElectrons: 187.900000","chan":"stdout","logger":"task"}
{"timestamp":"2025-09-02T00:19:00.871633Z","level":"info","event":"LCAOMinimize: Iter:   4  F: -724.6752272628792753  |grad|_K:  2.415e-02  alpha: -8.399e-01  linmin: -9.977e-02  cgtest:  8.316e-01  t[s]:    319.33","chan":"stdout","logger":"task"}
{"timestamp":"2025-09-02T00:19:50.503637Z","level":"info","event":"\tFillingsUpdate:  mu: -0.094659828  nElectrons: 187.900000","chan":"stdout","logger":"task"}
{"timestamp":"2025-09-02T00:19:50.504212Z","level":"info","event":"LCAOMinimize: Iter:   5  F: -725.6735364181569139  |grad|_K:  2.284e-02  alpha:  8.259e-02  linmin: -1.217e-01  cgtest:  8.926e-01  t[s]:    368.96","chan":"stdout","logger":"task"}
{"timestamp":"2025-09-02T00:20:05.533466Z","level":"info","event":"LCAOMinimize: \tWrong curvature in test step, increasing alphaT to 2.477637e-01.","chan":"stdout","logger":"task"}
{"timestamp":"2025-09-02T00:20:41.690492Z","level":"info","event":"\tFillingsUpdate:  mu: -0.118586142  nElectrons: 187.900000","chan":"stdout","logger":"task"}
{"timestamp":"2025-09-02T00:20:41.691002Z","level":"info","event":"LCAOMinimize: Iter:   6  F: -726.6049009906640777  |grad|_K:  2.345e-02  alpha: -5.011e-01  linmin: -1.453e-01  cgtest:  8.522e-01  t[s]:    420.15","chan":"stdout","logger":"task"}
{"timestamp":"2025-09-02T00:21:32.008789Z","level":"info","event":"\tFillingsUpdate:  mu: -0.139879682  nElectrons: 187.900000","chan":"stdout","logger":"task"}
{"timestamp":"2025-09-02T00:21:32.009498Z","level":"info","event":"LCAOMinimize: Iter:   7  F: -727.7664825758856750  |grad|_K:  2.561e-02  alpha:  7.971e-02  linmin: -1.679e-01  cgtest:  7.901e-01  t[s]:    470.47","chan":"stdout","logger":"task"}
{"timestamp":"2025-09-02T00:21:46.963642Z","level":"info","event":"LCAOMinimize: \tWrong curvature in test step, increasing alphaT to 2.391304e-01.","chan":"stdout","logger":"task"}
{"timestamp":"2025-09-02T00:22:21.952834Z","level":"info","event":"\tFillingsUpdate:  mu: -0.149914294  nElectrons: 187.900000","chan":"stdout","logger":"task"}
{"timestamp":"2025-09-02T00:22:21.953570Z","level":"info","event":"LCAOMinimize: Iter:   8  F: -729.6857691470913778  |grad|_K:  3.027e-02  alpha: -1.176e-01  linmin: -1.902e-01  cgtest:  6.770e-01  t[s]:    520.41","chan":"stdout","logger":"task"}
{"timestamp":"2025-09-02T00:23:13.612220Z","level":"info","event":"\tFillingsUpdate:  mu: -0.059778055  nElectrons: 187.900000","chan":"stdout","logger":"task"}
{"timestamp":"2025-09-02T00:23:13.612872Z","level":"info","event":"LCAOMinimize: Iter:   9  F: -734.7670586677141955  |grad|_K:  3.912e-02  alpha:  1.381e-01  linmin: -1.026e-01  cgtest:  1.142e-01  t[s]:    572.07","chan":"stdout","logger":"task"}
{"timestamp":"2025-09-02T00:24:06.950579Z","level":"info","event":"\tFillingsUpdate:  mu: -0.029913341  nElectrons: 187.900000","chan":"stdout","logger":"task"}
{"timestamp":"2025-09-02T00:24:06.951035Z","level":"info","event":"LCAOMinimize: Iter:  10  F: -736.0951411809001002  |grad|_K:  3.653e-02  alpha:  1.521e-02  linmin: -1.490e-01  cgtest:  8.489e-01  t[s]:    625.41","chan":"stdout","logger":"task"}
{"timestamp":"2025-09-02T00:24:24.649319Z","level":"info","event":"LCAOMinimize: \tPredicted alpha/alphaT>3.000000, increasing alphaT to 4.564055e-02.","chan":"stdout","logger":"task"}
{"timestamp":"2025-09-02T00:24:41.508185Z","level":"info","event":"LCAOMinimize: \tPredicted alpha/alphaT>3.000000, increasing alphaT to 1.369216e-01.","chan":"stdout","logger":"task"}
{"timestamp":"2025-09-02T00:25:38.286281Z","level":"info","event":"\tFillingsUpdate:  mu: +0.050633333  nElectrons: 187.900000","chan":"stdout","logger":"task"}
{"timestamp":"2025-09-02T00:25:38.286816Z","level":"info","event":"LCAOMinimize: Iter:  11  F: -737.8744343994203518  |grad|_K:  2.483e-02  alpha:  8.969e-02  linmin:  2.187e-02  cgtest: -4.657e-01  t[s]:    716.75","chan":"stdout","logger":"task"}
{"timestamp":"2025-09-02T00:26:32.135203Z","level":"info","event":"\tFillingsUpdate:  mu: +0.071723518  nElectrons: 187.900000","chan":"stdout","logger":"task"}
{"timestamp":"2025-09-02T00:26:32.135746Z","level":"info","event":"LCAOMinimize: Iter:  12  F: -738.0313170753805707  |grad|_K:  2.776e-02  alpha:  2.659e-02  linmin: -1.291e-02  cgtest:  9.081e-01  t[s]:    770.59","chan":"stdout","logger":"task"}
{"timestamp":"2025-09-02T00:26:48.114851Z","level":"info","event":"LCAOMinimize: \tPredicted alpha/alphaT>3.000000, increasing alphaT to 7.978276e-02.","chan":"stdout","logger":"task"}
{"timestamp":"2025-09-02T00:27:40.664000Z","level":"info","event":"\tFillingsUpdate:  mu: +0.004363481  nElectrons: 187.900000","chan":"stdout","logger":"task"}
{"timestamp":"2025-09-02T00:27:40.664477Z","level":"info","event":"LCAOMinimize: Iter:  13  F: -738.6343606788529996  |grad|_K:  8.403e-03  alpha:  8.264e-02  linmin:  1.545e-01  cgtest: -6.324e-01  t[s]:    839.12","chan":"stdout","logger":"task"}
{"timestamp":"2025-09-02T00:28:34.607870Z","level":"info","event":"\tFillingsUpdate:  mu: +0.016821397  nElectrons: 187.900000","chan":"stdout","logger":"task"}
{"timestamp":"2025-09-02T00:28:34.610573Z","level":"info","event":"LCAOMinimize: Iter:  14  F: -738.6579384054097090  |grad|_K:  7.578e-03  alpha:  7.590e-02  linmin:  6.197e-03  cgtest:  9.064e-01  t[s]:    893.07","chan":"stdout","logger":"task"}
{"timestamp":"2025-09-02T00:28:34.610970Z","level":"info","event":"LCAOMinimize: Encountered beta<0, resetting CG.","chan":"stdout","logger":"task"}
{"timestamp":"2025-09-02T00:29:26.392297Z","level":"info","event":"\tFillingsUpdate:  mu: +0.032645832  nElectrons: 187.900000","chan":"stdout","logger":"task"}
{"timestamp":"2025-09-02T00:29:26.392770Z","level":"info","event":"LCAOMinimize: Iter:  15  F: -738.6903229694847823  |grad|_K:  2.421e-03  alpha:  6.026e-02  linmin: -2.750e-03  cgtest: -1.875e-02  t[s]:    944.85","chan":"stdout","logger":"task"}
{"timestamp":"2025-09-02T00:29:29.333010Z","level":"info","event":"LCAOMinimize: None of the convergence criteria satisfied after 15 iterations.","chan":"stdout","logger":"task"}
{"timestamp":"2025-09-02T00:29:29.333581Z","level":"info","event":"----- createFluidSolver() ----- (Fluid-side solver setup)","chan":"stdout","logger":"task"}
{"timestamp":"2025-09-02T00:29:29.334009Z","level":"info","event":"   Initializing fluid molecule 'H2O'","chan":"stdout","logger":"task"}
{"timestamp":"2025-09-02T00:29:29.334412Z","level":"info","event":"     Initializing site 'O'","chan":"stdout","logger":"task"}
{"timestamp":"2025-09-02T00:29:29.334725Z","level":"info","event":"       Electron density: proportional to exp(-r/0.36935)*erfc((r-0.51523)/0.36823) with norm 6.826","chan":"stdout","logger":"task"}
{"timestamp":"2025-09-02T00:29:29.335110Z","level":"info","event":"       Charge density: gaussian nuclear width 0.478731 with net site charge 0.826","chan":"stdout","logger":"task"}
{"timestamp":"2025-09-02T00:29:29.335422Z","level":"info","event":"       Polarizability: cuspless exponential with width 0.32 and norm 3.73","chan":"stdout","logger":"task"}
{"timestamp":"2025-09-02T00:29:29.335705Z","level":"info","event":"       Hard sphere radius: 2.57003 bohrs","chan":"stdout","logger":"task"}
{"timestamp":"2025-09-02T00:29:29.335982Z","level":"info","event":"       Positions in reference frame:","chan":"stdout","logger":"task"}
{"timestamp":"2025-09-02T00:29:29.336272Z","level":"info","event":"         [ +0.000000 +0.000000 +0.000000 ]","chan":"stdout","logger":"task"}
{"timestamp":"2025-09-02T00:29:29.336541Z","level":"info","event":"     Initializing site 'H'","chan":"stdout","logger":"task"}
{"timestamp":"2025-09-02T00:29:29.336788Z","level":"info","event":"       Electron density: proportional to exp(-r/0.34641)*erfc((r-0)/0.390882) with norm 0.587","chan":"stdout","logger":"task"}
{"timestamp":"2025-09-02T00:29:29.337087Z","level":"info","event":"       Charge density: gaussian nuclear width 0.377945 with net site charge -0.413","chan":"stdout","logger":"task"}
{"timestamp":"2025-09-02T00:29:29.337381Z","level":"info","event":"       Polarizability: cuspless exponential with width 0.39 and norm 3.3","chan":"stdout","logger":"task"}
{"timestamp":"2025-09-02T00:29:29.337627Z","level":"info","event":"       Positions in reference frame:","chan":"stdout","logger":"task"}
{"timestamp":"2025-09-02T00:29:29.337933Z","level":"info","event":"         [ +0.000000 -1.441945 +1.122523 ]","chan":"stdout","logger":"task"}
{"timestamp":"2025-09-02T00:29:29.338269Z","level":"info","event":"         [ +0.000000 +1.441945 +1.122523 ]","chan":"stdout","logger":"task"}
{"timestamp":"2025-09-02T00:29:29.338467Z","level":"info","event":"     Net charge: 0   dipole magnitude: 0.927204","chan":"stdout","logger":"task"}
{"timestamp":"2025-09-02T00:29:29.338650Z","level":"info","event":"     Initializing spherical shell mfKernel with radius 2.61727 Bohr","chan":"stdout","logger":"task"}
{"timestamp":"2025-09-02T00:29:29.339069Z","level":"info","event":"     deltaS corrections:","chan":"stdout","logger":"task"}
{"timestamp":"2025-09-02T00:29:29.339367Z","level":"info","event":"       site 'O': -7.54299","chan":"stdout","logger":"task"}
{"timestamp":"2025-09-02T00:29:29.339731Z","level":"info","event":"       site 'H': -6.83917","chan":"stdout","logger":"task"}
{"timestamp":"2025-09-02T00:29:29.340043Z","level":"info","event":"   Initializing fluid molecule 'Na+'","chan":"stdout","logger":"task"}
{"timestamp":"2025-09-02T00:29:29.340350Z","level":"info","event":"     Initializing site 'Na'","chan":"stdout","logger":"task"}
{"timestamp":"2025-09-02T00:29:29.340653Z","level":"info","event":"       Electron density: proportional to exp(-r/0.19682)*erfc((r-0.71491)/0.41314) with norm 8.1383","chan":"stdout","logger":"task"}
{"timestamp":"2025-09-02T00:29:29.340899Z","level":"info","event":"       Charge density: gaussian nuclear width 0.365347 with net site charge -1","chan":"stdout","logger":"task"}
{"timestamp":"2025-09-02T00:29:29.341179Z","level":"info","event":"       Hard sphere radius: 1.86327 bohrs","chan":"stdout","logger":"task"}
{"timestamp":"2025-09-02T00:29:29.341402Z","level":"info","event":"       Positions in reference frame:","chan":"stdout","logger":"task"}
{"timestamp":"2025-09-02T00:29:29.341779Z","level":"info","event":"         [ +0.000000 +0.000000 +0.000000 ]","chan":"stdout","logger":"task"}
{"timestamp":"2025-09-02T00:29:29.342755Z","level":"info","event":"     Net charge: -1   dipole magnitude: 0","chan":"stdout","logger":"task"}
{"timestamp":"2025-09-02T00:29:29.343157Z","level":"info","event":"     Initializing gaussian mfKernel with width: 1.55004 Bohr","chan":"stdout","logger":"task"}
{"timestamp":"2025-09-02T00:29:29.343575Z","level":"info","event":"     deltaS corrections:","chan":"stdout","logger":"task"}
{"timestamp":"2025-09-02T00:29:29.343928Z","level":"info","event":"       site 'Na': -22.3555","chan":"stdout","logger":"task"}
{"timestamp":"2025-09-02T00:29:29.344233Z","level":"info","event":"   Initializing fluid molecule 'F-'","chan":"stdout","logger":"task"}
{"timestamp":"2025-09-02T00:29:29.344546Z","level":"info","event":"     Initializing site 'F'","chan":"stdout","logger":"task"}
{"timestamp":"2025-09-02T00:29:29.345135Z","level":"info","event":"       Electron density: proportional to exp(-r/0.38886)*erfc((r-0)/0.438782) with norm 8","chan":"stdout","logger":"task"}
{"timestamp":"2025-09-02T00:29:29.345773Z","level":"info","event":"       Charge density: gaussian nuclear width 0.374796 with net site charge 1","chan":"stdout","logger":"task"}
{"timestamp":"2025-09-02T00:29:29.346443Z","level":"info","event":"       Hard sphere radius: 2.39995 bohrs","chan":"stdout","logger":"task"}
{"timestamp":"2025-09-02T00:29:29.346797Z","level":"info","event":"       Positions in reference frame:","chan":"stdout","logger":"task"}
{"timestamp":"2025-09-02T00:29:29.347114Z","level":"info","event":"         [ +0.000000 +0.000000 +0.000000 ]","chan":"stdout","logger":"task"}
{"timestamp":"2025-09-02T00:29:29.347533Z","level":"info","event":"     Net charge: 1   dipole magnitude: 0","chan":"stdout","logger":"task"}
{"timestamp":"2025-09-02T00:29:29.347829Z","level":"info","event":"     Initializing gaussian mfKernel with width: 1.59012 Bohr","chan":"stdout","logger":"task"}
{"timestamp":"2025-09-02T00:29:29.348190Z","level":"info","event":"     deltaS corrections:","chan":"stdout","logger":"task"}
{"timestamp":"2025-09-02T00:29:29.348489Z","level":"info","event":"       site 'F': -9.04335","chan":"stdout","logger":"task"}
{"timestamp":"2025-09-02T00:29:29.348773Z","level":"info","event":"","chan":"stdout","logger":"task"}
{"timestamp":"2025-09-02T00:29:29.349047Z","level":"info","event":"Correction to mu due to finite nuclear width = -0.126869","chan":"stdout","logger":"task"}
{"timestamp":"2025-09-02T00:29:29.349359Z","level":"info","event":"   Cavity determined by nc: 0.00142 and sigma: 0.707107","chan":"stdout","logger":"task"}
{"timestamp":"2025-09-02T00:29:29.349677Z","level":"info","event":"   Nonlocal vdW cavity from gaussian model electron density with norm = 8 and sigma = 0.993594 bohr","chan":"stdout","logger":"task"}
{"timestamp":"2025-09-02T00:29:29.349947Z","level":"info","event":"   Charge asymmetry in cavity with sensitivity pCavity = 36.5 e-bohr/Eh","chan":"stdout","logger":"task"}
{"timestamp":"2025-09-02T00:29:29.350339Z","level":"info","event":"   Electrostatic cavity expanded by eta = 1.46 bohrs","chan":"stdout","logger":"task"}
{"timestamp":"2025-09-02T00:29:29.350663Z","level":"info","event":"   Weighted density cavitation model constrained by Nbulk: 0.0049383 bohr^-3, Pvap: 3.14029 kPa, Rvdw: 2.61727 bohr and sigmaBulk: 4.62e-05 Eh/bohr^2 at T: 298 K.","chan":"stdout","logger":"task"}
{"timestamp":"2025-09-02T00:29:29.350960Z","level":"info","event":"   Weighted density dispersion model using vdW pair potentials with single solvent site with sqrtC6eff: 0.77 SI.","chan":"stdout","logger":"task"}
{"timestamp":"2025-09-02T00:29:29.351289Z","level":"info","event":"","chan":"stdout","logger":"task"}
{"timestamp":"2025-09-02T00:29:29.351777Z","level":"info","event":"","chan":"stdout","logger":"task"}
{"timestamp":"2025-09-02T00:29:29.352094Z","level":"info","event":"---- Citations for features of the code used in this run ----","chan":"stdout","logger":"task"}
{"timestamp":"2025-09-02T00:29:29.352434Z","level":"info","event":"","chan":"stdout","logger":"task"}
{"timestamp":"2025-09-02T00:29:29.353926Z","level":"info","event":"   Software package:","chan":"stdout","logger":"task"}
{"timestamp":"2025-09-02T00:29:29.354375Z","level":"info","event":"      R. Sundararaman, K. Letchworth-Weaver, K.A. Schwarz, D. Gunceler, Y. Ozhabes and T.A. Arias, 'JDFTx: software for joint density-functional theory', SoftwareX 6, 278 (2017)","chan":"stdout","logger":"task"}
{"timestamp":"2025-09-02T00:29:29.354841Z","level":"info","event":"","chan":"stdout","logger":"task"}
{"timestamp":"2025-09-02T00:29:29.355165Z","level":"info","event":"   gga-PBE exchange-correlation functional:","chan":"stdout","logger":"task"}
{"timestamp":"2025-09-02T00:29:29.355565Z","level":"info","event":"      J.P. Perdew, K. Burke and M. Ernzerhof, Phys. Rev. Lett. 77, 3865 (1996)","chan":"stdout","logger":"task"}
{"timestamp":"2025-09-02T00:29:29.355888Z","level":"info","event":"","chan":"stdout","logger":"task"}
{"timestamp":"2025-09-02T00:29:29.356648Z","level":"info","event":"   Pseudopotentials:","chan":"stdout","logger":"task"}
{"timestamp":"2025-09-02T00:29:29.356977Z","level":"info","event":"      KF Garrity, JW Bennett, KM Rabe and D Vanderbilt, Comput. Mater. Sci. 81, 446 (2014)","chan":"stdout","logger":"task"}
{"timestamp":"2025-09-02T00:29:29.357277Z","level":"info","event":"","chan":"stdout","logger":"task"}
{"timestamp":"2025-09-02T00:29:29.357542Z","level":"info","event":"   DFT-D2 dispersion correction:","chan":"stdout","logger":"task"}
{"timestamp":"2025-09-02T00:29:29.357821Z","level":"info","event":"      S. Grimme, J. Comput. Chem. 27, 1787 (2006)","chan":"stdout","logger":"task"}
{"timestamp":"2025-09-02T00:29:29.358441Z","level":"info","event":"","chan":"stdout","logger":"task"}
{"timestamp":"2025-09-02T00:29:29.358748Z","level":"info","event":"   Charge-asymmetric nonlocally-determined local-electric (CANDLE) solvation model:","chan":"stdout","logger":"task"}
{"timestamp":"2025-09-02T00:29:29.359099Z","level":"info","event":"      R. Sundararaman and W.A. Goddard III, J. Chem. Phys. 142, 064107 (2015)","chan":"stdout","logger":"task"}
{"timestamp":"2025-09-02T00:29:29.359894Z","level":"info","event":"","chan":"stdout","logger":"task"}
{"timestamp":"2025-09-02T00:29:29.360345Z","level":"info","event":"   Total energy minimization with Auxiliary Hamiltonian:","chan":"stdout","logger":"task"}
{"timestamp":"2025-09-02T00:29:29.361048Z","level":"info","event":"      C. Freysoldt, S. Boeck, and J. Neugebauer, Phys. Rev. B 79, 241103(R) (2009)","chan":"stdout","logger":"task"}
{"timestamp":"2025-09-02T00:29:29.361398Z","level":"info","event":"","chan":"stdout","logger":"task"}
{"timestamp":"2025-09-02T00:29:29.361728Z","level":"info","event":"This list may not be complete. Please suggest additional citations or","chan":"stdout","logger":"task"}
{"timestamp":"2025-09-02T00:29:29.362125Z","level":"info","event":"report any other bugs at https://github.com/shankar1729/jdftx/issues","chan":"stdout","logger":"task"}
{"timestamp":"2025-09-02T00:29:29.362444Z","level":"info","event":"","chan":"stdout","logger":"task"}
{"timestamp":"2025-09-02T00:29:29.362834Z","level":"info","event":"Initialization completed successfully at t[s]:    947.79","chan":"stdout","logger":"task"}
{"timestamp":"2025-09-02T00:29:29.363202Z","level":"info","event":"","chan":"stdout","logger":"task"}
{"timestamp":"2025-09-02T00:29:29.896690Z","level":"info","event":"Fluid solver invoked on fresh (random / LCAO) wavefunctions","chan":"stdout","logger":"task"}
{"timestamp":"2025-09-02T00:29:29.897172Z","level":"info","event":"Running a vacuum solve first:","chan":"stdout","logger":"task"}
{"timestamp":"2025-09-02T00:29:29.897487Z","level":"info","event":"","chan":"stdout","logger":"task"}
{"timestamp":"2025-09-02T00:29:29.897794Z","level":"info","event":"-------- Initial electronic minimization -----------","chan":"stdout","logger":"task"}
{"timestamp":"2025-09-02T00:30:07.248746Z","level":"info","event":"\tFillingsUpdate:  mu: +0.032646251  nElectrons: 187.900000","chan":"stdout","logger":"task"}
{"timestamp":"2025-09-02T00:30:07.249544Z","level":"info","event":"ElecMinimize: Iter:   0  F: -738.690322969487852  |grad|_K:  2.092e-03  alpha:  1.000e+00","chan":"stdout","logger":"task"}
{"timestamp":"2025-09-02T00:31:01.344306Z","level":"info","event":"\tFillingsUpdate:  mu: +0.030838185  nElectrons: 187.900000","chan":"stdout","logger":"task"}
{"timestamp":"2025-09-02T00:31:01.347496Z","level":"info","event":"\tSubspaceRotationAdjust: set factor to 0.686","chan":"stdout","logger":"task"}
{"timestamp":"2025-09-02T00:31:01.348468Z","level":"info","event":"ElecMinimize: Iter:   1  F: -739.546550416861351  |grad|_K:  1.735e-03  alpha:  4.539e-01  linmin:  1.747e-04  t[s]:   1039.81","chan":"stdout","logger":"task"}
{"timestamp":"2025-09-02T00:31:54.248602Z","level":"info","event":"\tFillingsUpdate:  mu: +0.049522823  nElectrons: 187.900000","chan":"stdout","logger":"task"}
{"timestamp":"2025-09-02T00:31:54.253072Z","level":"info","event":"\tSubspaceRotationAdjust: set factor to 0.65","chan":"stdout","logger":"task"}
{"timestamp":"2025-09-02T00:31:54.253600Z","level":"info","event":"ElecMinimize: Iter:   2  F: -739.683422882788022  |grad|_K:  1.078e-03  alpha:  8.551e-02  linmin: -1.594e-03  t[s]:   1092.71","chan":"stdout","logger":"task"}
{"timestamp":"2025-09-02T00:32:47.883170Z","level":"info","event":"\tFillingsUpdate:  mu: +0.002211190  nElectrons: 187.900000","chan":"stdout","logger":"task"}
{"timestamp":"2025-09-02T00:32:47.886329Z","level":"info","event":"\tSubspaceRotationAdjust: set factor to 0.426","chan":"stdout","logger":"task"}
{"timestamp":"2025-09-02T00:32:47.886908Z","level":"info","event":"ElecMinimize: Iter:   3  F: -739.834763464292564  |grad|_K:  1.084e-03  alpha:  2.500e-01  linmin:  6.682e-05  t[s]:   1146.35","chan":"stdout","logger":"task"}
{"timestamp":"2025-09-02T00:33:38.907637Z","level":"info","event":"\tFillingsUpdate:  mu: -0.005200603  nElectrons: 187.900000","chan":"stdout","logger":"task"}
{"timestamp":"2025-09-02T00:33:38.910821Z","level":"info","event":"\tSubspaceRotationAdjust: set factor to 0.381","chan":"stdout","logger":"task"}
{"timestamp":"2025-09-02T00:33:38.911239Z","level":"info","event":"ElecMinimize: Iter:   4  F: -739.899830707594106  |grad|_K:  7.540e-04  alpha:  1.265e-01  linmin:  1.342e-05  t[s]:   1197.37","chan":"stdout","logger":"task"}
{"timestamp":"2025-09-02T00:34:29.911455Z","level":"info","event":"\tFillingsUpdate:  mu: +0.003321387  nElectrons: 187.900000","chan":"stdout","logger":"task"}
{"timestamp":"2025-09-02T00:34:29.914373Z","level":"info","event":"\tSubspaceRotationAdjust: set factor to 0.383","chan":"stdout","logger":"task"}
{"timestamp":"2025-09-02T00:34:29.914962Z","level":"info","event":"ElecMinimize: Iter:   5  F: -739.956342831344386  |grad|_K:  5.387e-04  alpha:  2.275e-01  linmin:  4.752e-05  t[s]:   1248.37","chan":"stdout","logger":"task"}
{"timestamp":"2025-09-02T00:35:21.347528Z","level":"info","event":"\tFillingsUpdate:  mu: +0.005869096  nElectrons: 187.900000","chan":"stdout","logger":"task"}
{"timestamp":"2025-09-02T00:35:21.351470Z","level":"info","event":"\tSubspaceRotationAdjust: set factor to 0.391","chan":"stdout","logger":"task"}
{"timestamp":"2025-09-02T00:35:21.351953Z","level":"info","event":"ElecMinimize: Iter:   6  F: -739.979280564242458  |grad|_K:  4.290e-04  alpha:  1.807e-01  linmin:  1.843e-05  t[s]:   1299.81","chan":"stdout","logger":"task"}
{"timestamp":"2025-09-02T00:36:11.228635Z","level":"info","event":"\tFillingsUpdate:  mu: +0.001664217  nElectrons: 187.900000","chan":"stdout","logger":"task"}
{"timestamp":"2025-09-02T00:36:11.231221Z","level":"info","event":"\tSubspaceRotationAdjust: set factor to 0.371","chan":"stdout","logger":"task"}
{"timestamp":"2025-09-02T00:36:11.231725Z","level":"info","event":"ElecMinimize: Iter:   7  F: -740.001020235498459  |grad|_K:  3.876e-04  alpha:  2.701e-01  linmin:  5.744e-05  t[s]:   1349.69","chan":"stdout","logger":"task"}
{"timestamp":"2025-09-02T00:37:05.993188Z","level":"info","event":"\tFillingsUpdate:  mu: +0.005265455  nElectrons: 187.900000","chan":"stdout","logger":"task"}
{"timestamp":"2025-09-02T00:37:05.995869Z","level":"info","event":"\tSubspaceRotationAdjust: set factor to 0.36","chan":"stdout","logger":"task"}
{"timestamp":"2025-09-02T00:37:05.996442Z","level":"info","event":"ElecMinimize: Iter:   8  F: -740.011831187681082  |grad|_K:  2.832e-04  alpha:  1.636e-01  linmin: -9.106e-06  t[s]:   1404.46","chan":"stdout","logger":"task"}
{"timestamp":"2025-09-02T00:38:01.045750Z","level":"info","event":"\tFillingsUpdate:  mu: +0.006222453  nElectrons: 187.900000","chan":"stdout","logger":"task"}
{"timestamp":"2025-09-02T00:38:01.049964Z","level":"info","event":"\tSubspaceRotationAdjust: set factor to 0.3","chan":"stdout","logger":"task"}
{"timestamp":"2025-09-02T00:38:01.051204Z","level":"info","event":"ElecMinimize: Iter:   9  F: -740.021388543788248  |grad|_K:  2.767e-04  alpha:  2.711e-01  linmin:  3.591e-05  t[s]:   1459.51","chan":"stdout","logger":"task"}
{"timestamp":"2025-09-02T00:38:53.408726Z","level":"info","event":"\tFillingsUpdate:  mu: +0.010074567  nElectrons: 187.900000","chan":"stdout","logger":"task"}
{"timestamp":"2025-09-02T00:38:53.412455Z","level":"info","event":"\tSubspaceRotationAdjust: set factor to 0.342","chan":"stdout","logger":"task"}
{"timestamp":"2025-09-02T00:38:53.413003Z","level":"info","event":"ElecMinimize: Iter:  10  F: -740.027196689397897  |grad|_K:  1.870e-04  alpha:  1.737e-01  linmin:  1.848e-05  t[s]:   1511.87","chan":"stdout","logger":"task"}
