{"timestamp":"2025-09-01T23:33:29.351594","level":"info","event":"DAG bundles loaded: dags-folder","logger":"airflow.dag_processing.bundles.manager.DagBundlesManager"}
{"timestamp":"2025-09-01T23:33:29.352125","level":"info","event":"Filling up the DagBag from /opt/airflow/dags/my_dag.py","logger":"airflow.models.dagbag.DagBag"}
{"timestamp":"2025-09-01T23:33:33.161467Z","level":"info","event":"","chan":"stdout","logger":"task"}
{"timestamp":"2025-09-01T23:33:33.164490Z","level":"info","event":"*************** JDFTx 1.7.0  ***************","chan":"stdout","logger":"task"}
{"timestamp":"2025-09-01T23:33:33.165053Z","level":"info","event":"","chan":"stdout","logger":"task"}
{"timestamp":"2025-09-01T23:33:33.173882Z","level":"info","event":"Start date and time: Mon Sep  1 23:33:33 2025","chan":"stdout","logger":"task"}
{"timestamp":"2025-09-01T23:33:33.174278Z","level":"info","event":"Executable jdftx with command-line: -i /opt/airflow/output/gc_dft/mp-1393040-111-1_-0.1.in","chan":"stdout","logger":"task"}
{"timestamp":"2025-09-01T23:33:33.174507Z","level":"info","event":"Running on hosts (process indices):  ff1b112381ec (0)","chan":"stdout","logger":"task"}
{"timestamp":"2025-09-01T23:33:33.174744Z","level":"info","event":"Divided in process groups (process indices):  0 (0)","chan":"stdout","logger":"task"}
{"timestamp":"2025-09-01T23:33:33.174948Z","level":"info","event":"Resource initialization completed at t[s]:      0.00","chan":"stdout","logger":"task"}
{"timestamp":"2025-09-01T23:33:33.175213Z","level":"info","event":"Run totals: 1 processes, 8 threads, 0 GPUs","chan":"stdout","logger":"task"}
{"timestamp":"2025-09-01T23:33:33.175424Z","level":"info","event":"","chan":"stdout","logger":"task"}
{"timestamp":"2025-09-01T23:33:33.175640Z","level":"info","event":"","chan":"stdout","logger":"task"}
{"timestamp":"2025-09-01T23:33:33.175908Z","level":"info","event":"Input parsed successfully to the following command list (including defaults):","chan":"stdout","logger":"task"}
{"timestamp":"2025-09-01T23:33:33.176120Z","level":"info","event":"","chan":"stdout","logger":"task"}
{"timestamp":"2025-09-01T23:33:33.176370Z","level":"info","event":"basis kpoint-dependent","chan":"stdout","logger":"task"}
{"timestamp":"2025-09-01T23:33:33.176586Z","level":"info","event":"coords-type Cartesian","chan":"stdout","logger":"task"}
{"timestamp":"2025-09-01T23:33:33.176780Z","level":"info","event":"core-overlap-check vector","chan":"stdout","logger":"task"}
{"timestamp":"2025-09-01T23:33:33.176964Z","level":"info","event":"coulomb-interaction Periodic","chan":"stdout","logger":"task"}
{"timestamp":"2025-09-01T23:33:33.177201Z","level":"info","event":"davidson-band-ratio 1.1","chan":"stdout","logger":"task"}
{"timestamp":"2025-09-01T23:33:33.177425Z","level":"info","event":"dump End State","chan":"stdout","logger":"task"}
{"timestamp":"2025-09-01T23:33:33.177649Z","level":"info","event":"dump-name $VAR","chan":"stdout","logger":"task"}
{"timestamp":"2025-09-01T23:33:33.177854Z","level":"info","event":"elec-cutoff 10","chan":"stdout","logger":"task"}
{"timestamp":"2025-09-01T23:33:33.178133Z","level":"info","event":"elec-eigen-algo Davidson","chan":"stdout","logger":"task"}
{"timestamp":"2025-09-01T23:33:33.178450Z","level":"info","event":"elec-ex-corr gga-PBE","chan":"stdout","logger":"task"}
{"timestamp":"2025-09-01T23:33:33.178746Z","level":"info","event":"elec-initial-charge -0.100000","chan":"stdout","logger":"task"}
{"timestamp":"2025-09-01T23:33:33.179013Z","level":"info","event":"elec-smearing Fermi 0.00734","chan":"stdout","logger":"task"}
{"timestamp":"2025-09-01T23:33:33.179309Z","level":"info","event":"electronic-minimize  \\","chan":"stdout","logger":"task"}
{"timestamp":"2025-09-01T23:33:33.179560Z","level":"info","event":"\tdirUpdateScheme      FletcherReeves \\","chan":"stdout","logger":"task"}
{"timestamp":"2025-09-01T23:33:33.179810Z","level":"info","event":"\tlinminMethod         DirUpdateRecommended \\","chan":"stdout","logger":"task"}
{"timestamp":"2025-09-01T23:33:33.180080Z","level":"info","event":"\tnIterations          30 \\","chan":"stdout","logger":"task"}
{"timestamp":"2025-09-01T23:33:33.180376Z","level":"info","event":"\thistory              15 \\","chan":"stdout","logger":"task"}
{"timestamp":"2025-09-01T23:33:33.180616Z","level":"info","event":"\tknormThreshold       0 \\","chan":"stdout","logger":"task"}
{"timestamp":"2025-09-01T23:33:33.180878Z","level":"info","event":"\tmaxThreshold         no \\","chan":"stdout","logger":"task"}
{"timestamp":"2025-09-01T23:33:33.181133Z","level":"info","event":"\tenergyDiffThreshold  1e-05 \\","chan":"stdout","logger":"task"}
{"timestamp":"2025-09-01T23:33:33.181351Z","level":"info","event":"\tnEnergyDiff          2 \\","chan":"stdout","logger":"task"}
{"timestamp":"2025-09-01T23:33:33.181609Z","level":"info","event":"\tconvergeAll          no \\","chan":"stdout","logger":"task"}
{"timestamp":"2025-09-01T23:33:33.181794Z","level":"info","event":"\talphaTstart          1 \\","chan":"stdout","logger":"task"}
{"timestamp":"2025-09-01T23:33:33.182041Z","level":"info","event":"\talphaTmin            1e-10 \\","chan":"stdout","logger":"task"}
{"timestamp":"2025-09-01T23:33:33.182292Z","level":"info","event":"\tupdateTestStepSize   yes \\","chan":"stdout","logger":"task"}
{"timestamp":"2025-09-01T23:33:33.182507Z","level":"info","event":"\talphaTreduceFactor   0.1 \\","chan":"stdout","logger":"task"}
{"timestamp":"2025-09-01T23:33:33.182779Z","level":"info","event":"\talphaTincreaseFactor 3 \\","chan":"stdout","logger":"task"}
{"timestamp":"2025-09-01T23:33:33.183014Z","level":"info","event":"\tnAlphaAdjustMax      3 \\","chan":"stdout","logger":"task"}
{"timestamp":"2025-09-01T23:33:33.183254Z","level":"info","event":"\twolfeEnergy          0.0001 \\","chan":"stdout","logger":"task"}
{"timestamp":"2025-09-01T23:33:33.183443Z","level":"info","event":"\twolfeGradient        0.9 \\","chan":"stdout","logger":"task"}
{"timestamp":"2025-09-01T23:33:33.183643Z","level":"info","event":"\tabortOnFailedStep    no \\","chan":"stdout","logger":"task"}
{"timestamp":"2025-09-01T23:33:33.183821Z","level":"info","event":"\tfdTest               no","chan":"stdout","logger":"task"}
{"timestamp":"2025-09-01T23:33:33.184027Z","level":"info","event":"exchange-regularization WignerSeitzTruncated","chan":"stdout","logger":"task"}
{"timestamp":"2025-09-01T23:33:33.184244Z","level":"info","event":"fluid LinearPCM 298.000000 1.013250","chan":"stdout","logger":"task"}
{"timestamp":"2025-09-01T23:33:33.184394Z","level":"info","event":"fluid-anion F- 1 MeanFieldLJ \\","chan":"stdout","logger":"task"}
{"timestamp":"2025-09-01T23:33:33.184567Z","level":"info","event":"\tepsBulk 1 \\","chan":"stdout","logger":"task"}
{"timestamp":"2025-09-01T23:33:33.184764Z","level":"info","event":"\tpMol 0 \\","chan":"stdout","logger":"task"}
{"timestamp":"2025-09-01T23:33:33.184965Z","level":"info","event":"\tepsInf 1 \\","chan":"stdout","logger":"task"}
{"timestamp":"2025-09-01T23:33:33.185192Z","level":"info","event":"\tPvap 0 \\","chan":"stdout","logger":"task"}
{"timestamp":"2025-09-01T23:33:33.185441Z","level":"info","event":"\tsigmaBulk 0 \\","chan":"stdout","logger":"task"}
{"timestamp":"2025-09-01T23:33:33.185697Z","level":"info","event":"\tRvdw 2.24877 \\","chan":"stdout","logger":"task"}
{"timestamp":"2025-09-01T23:33:33.186049Z","level":"info","event":"\tRes 0 \\","chan":"stdout","logger":"task"}
{"timestamp":"2025-09-01T23:33:33.186366Z","level":"info","event":"\ttauNuc 343133","chan":"stdout","logger":"task"}
{"timestamp":"2025-09-01T23:33:33.186621Z","level":"info","event":"fluid-cation Na+ 1 MeanFieldLJ \\","chan":"stdout","logger":"task"}
{"timestamp":"2025-09-01T23:33:33.186819Z","level":"info","event":"\tepsBulk 1 \\","chan":"stdout","logger":"task"}
{"timestamp":"2025-09-01T23:33:33.186992Z","level":"info","event":"\tpMol 0 \\","chan":"stdout","logger":"task"}
{"timestamp":"2025-09-01T23:33:33.187181Z","level":"info","event":"\tepsInf 1 \\","chan":"stdout","logger":"task"}
{"timestamp":"2025-09-01T23:33:33.187438Z","level":"info","event":"\tPvap 0 \\","chan":"stdout","logger":"task"}
{"timestamp":"2025-09-01T23:33:33.187708Z","level":"info","event":"\tsigmaBulk 0 \\","chan":"stdout","logger":"task"}
{"timestamp":"2025-09-01T23:33:33.187935Z","level":"info","event":"\tRvdw 2.19208 \\","chan":"stdout","logger":"task"}
{"timestamp":"2025-09-01T23:33:33.188146Z","level":"info","event":"\tRes 0 \\","chan":"stdout","logger":"task"}
{"timestamp":"2025-09-01T23:33:33.188353Z","level":"info","event":"\ttauNuc 343133","chan":"stdout","logger":"task"}
{"timestamp":"2025-09-01T23:33:33.188537Z","level":"info","event":"fluid-ex-corr lda-TF lda-PZ","chan":"stdout","logger":"task"}
{"timestamp":"2025-09-01T23:33:33.188700Z","level":"info","event":"fluid-gummel-loop 10 1.000000e-05","chan":"stdout","logger":"task"}
{"timestamp":"2025-09-01T23:33:33.188910Z","level":"info","event":"fluid-minimize  \\","chan":"stdout","logger":"task"}
{"timestamp":"2025-09-01T23:33:33.189060Z","level":"info","event":"\tdirUpdateScheme      PolakRibiere \\","chan":"stdout","logger":"task"}
{"timestamp":"2025-09-01T23:33:33.189201Z","level":"info","event":"\tlinminMethod         DirUpdateRecommended \\","chan":"stdout","logger":"task"}
{"timestamp":"2025-09-01T23:33:33.189359Z","level":"info","event":"\tnIterations          400 \\","chan":"stdout","logger":"task"}
{"timestamp":"2025-09-01T23:33:33.189529Z","level":"info","event":"\thistory              15 \\","chan":"stdout","logger":"task"}
{"timestamp":"2025-09-01T23:33:33.189762Z","level":"info","event":"\tknormThreshold       1e-11 \\","chan":"stdout","logger":"task"}
{"timestamp":"2025-09-01T23:33:33.190075Z","level":"info","event":"\tmaxThreshold         no \\","chan":"stdout","logger":"task"}
{"timestamp":"2025-09-01T23:33:33.190332Z","level":"info","event":"\tenergyDiffThreshold  0 \\","chan":"stdout","logger":"task"}
{"timestamp":"2025-09-01T23:33:33.190537Z","level":"info","event":"\tnEnergyDiff          2 \\","chan":"stdout","logger":"task"}
{"timestamp":"2025-09-01T23:33:33.190717Z","level":"info","event":"\tconvergeAll          no \\","chan":"stdout","logger":"task"}
{"timestamp":"2025-09-01T23:33:33.190880Z","level":"info","event":"\talphaTstart          1 \\","chan":"stdout","logger":"task"}
{"timestamp":"2025-09-01T23:33:33.191089Z","level":"info","event":"\talphaTmin            1e-10 \\","chan":"stdout","logger":"task"}
{"timestamp":"2025-09-01T23:33:33.191357Z","level":"info","event":"\tupdateTestStepSize   yes \\","chan":"stdout","logger":"task"}
{"timestamp":"2025-09-01T23:33:33.191542Z","level":"info","event":"\talphaTreduceFactor   0.1 \\","chan":"stdout","logger":"task"}
{"timestamp":"2025-09-01T23:33:33.191746Z","level":"info","event":"\talphaTincreaseFactor 3 \\","chan":"stdout","logger":"task"}
{"timestamp":"2025-09-01T23:33:33.191935Z","level":"info","event":"\tnAlphaAdjustMax      6 \\","chan":"stdout","logger":"task"}
{"timestamp":"2025-09-01T23:33:33.192136Z","level":"info","event":"\twolfeEnergy          0.0001 \\","chan":"stdout","logger":"task"}
{"timestamp":"2025-09-01T23:33:33.192339Z","level":"info","event":"\twolfeGradient        0.9 \\","chan":"stdout","logger":"task"}
{"timestamp":"2025-09-01T23:33:33.192617Z","level":"info","event":"\tabortOnFailedStep    no \\","chan":"stdout","logger":"task"}
{"timestamp":"2025-09-01T23:33:33.192998Z","level":"info","event":"\tfdTest               no","chan":"stdout","logger":"task"}
{"timestamp":"2025-09-01T23:33:33.193246Z","level":"info","event":"fluid-solvent H2O 55.338 ScalarEOS \\","chan":"stdout","logger":"task"}
{"timestamp":"2025-09-01T23:33:33.193488Z","level":"info","event":"\tepsBulk 78.4 \\","chan":"stdout","logger":"task"}
{"timestamp":"2025-09-01T23:33:33.193748Z","level":"info","event":"\tpMol 0.92466 \\","chan":"stdout","logger":"task"}
{"timestamp":"2025-09-01T23:33:33.193927Z","level":"info","event":"\tepsInf 1.77 \\","chan":"stdout","logger":"task"}
{"timestamp":"2025-09-01T23:33:33.194148Z","level":"info","event":"\tPvap 1.06736e-10 \\","chan":"stdout","logger":"task"}
{"timestamp":"2025-09-01T23:33:33.194381Z","level":"info","event":"\tsigmaBulk 4.62e-05 \\","chan":"stdout","logger":"task"}
{"timestamp":"2025-09-01T23:33:33.194646Z","level":"info","event":"\tRvdw 2.61727 \\","chan":"stdout","logger":"task"}
{"timestamp":"2025-09-01T23:33:33.198038Z","level":"info","event":"\tRes 1.42 \\","chan":"stdout","logger":"task"}
{"timestamp":"2025-09-01T23:33:33.198315Z","level":"info","event":"\ttauNuc 343133 \\","chan":"stdout","logger":"task"}
{"timestamp":"2025-09-01T23:33:33.198591Z","level":"info","event":"\tpoleEl 15 7 1","chan":"stdout","logger":"task"}
{"timestamp":"2025-09-01T23:33:33.198866Z","level":"info","event":"forces-output-coords Positions","chan":"stdout","logger":"task"}
{"timestamp":"2025-09-01T23:33:33.199121Z","level":"info","event":"initial-state $VAR","chan":"stdout","logger":"task"}
{"timestamp":"2025-09-01T23:33:33.199540Z","level":"info","event":"ion V   0.000000000000000   9.808292000000002  18.232294000000000 1","chan":"stdout","logger":"task"}
{"timestamp":"2025-09-01T23:33:33.200027Z","level":"info","event":"ion V   0.000000000000000   0.000000000000000  23.842230000000004 1","chan":"stdout","logger":"task"}
{"timestamp":"2025-09-01T23:33:33.200499Z","level":"info","event":"ion V   0.000000000000000   9.808292000000002  23.842230000000001 1","chan":"stdout","logger":"task"}
{"timestamp":"2025-09-01T23:33:33.200780Z","level":"info","event":"ion V   0.000000000000000   0.000000000000000  29.452167000000003 1","chan":"stdout","logger":"task"}
{"timestamp":"2025-09-01T23:33:33.201087Z","level":"info","event":"ion V   0.000000000000000   9.808292000000002  29.452167000000003 1","chan":"stdout","logger":"task"}
{"timestamp":"2025-09-01T23:33:33.201373Z","level":"info","event":"ion V   0.000000000000000   0.000000000000000  35.062103999999998 1","chan":"stdout","logger":"task"}
{"timestamp":"2025-09-01T23:33:33.201734Z","level":"info","event":"ion V   0.000000000000000   9.808292000000002  35.062103999999998 1","chan":"stdout","logger":"task"}
{"timestamp":"2025-09-01T23:33:33.202101Z","level":"info","event":"ion V   0.000000000000000   0.000000000000000  40.672040000000003 1","chan":"stdout","logger":"task"}
{"timestamp":"2025-09-01T23:33:33.202424Z","level":"info","event":"ion O   3.238900000000000  11.598168000000001  12.622354000000001 1","chan":"stdout","logger":"task"}
{"timestamp":"2025-09-01T23:33:33.202694Z","level":"info","event":"ion O   3.238900000000000  17.826708000000000  12.622354000000001 1","chan":"stdout","logger":"task"}
{"timestamp":"2025-09-01T23:33:33.202992Z","level":"info","event":"ion O   1.619447000000000   8.018416000000002  15.427327999999999 1","chan":"stdout","logger":"task"}
{"timestamp":"2025-09-01T23:33:33.203283Z","level":"info","event":"ion O   1.619447000000000   1.789876000000000  21.037265000000005 1","chan":"stdout","logger":"task"}
{"timestamp":"2025-09-01T23:33:33.203616Z","level":"info","event":"ion O   3.238900000000000  11.598168000000001  18.232290000000003 1","chan":"stdout","logger":"task"}
{"timestamp":"2025-09-01T23:33:33.203927Z","level":"info","event":"ion O   3.238900000000000  17.826708000000000  18.232290000000003 1","chan":"stdout","logger":"task"}
{"timestamp":"2025-09-01T23:33:33.204187Z","level":"info","event":"ion O   1.619447000000000   8.018416000000002  21.037265000000005 1","chan":"stdout","logger":"task"}
{"timestamp":"2025-09-01T23:33:33.204430Z","level":"info","event":"ion O   1.619447000000000   1.789876000000000  26.647200999999999 1","chan":"stdout","logger":"task"}
{"timestamp":"2025-09-01T23:33:33.204706Z","level":"info","event":"ion O   3.238900000000000  11.598168000000001  23.842227000000005 1","chan":"stdout","logger":"task"}
{"timestamp":"2025-09-01T23:33:33.204997Z","level":"info","event":"ion O   3.238900000000000  17.826708000000000  23.842227000000008 1","chan":"stdout","logger":"task"}
{"timestamp":"2025-09-01T23:33:33.205309Z","level":"info","event":"ion O   1.619447000000000   8.018416000000002  26.647200999999999 1","chan":"stdout","logger":"task"}
{"timestamp":"2025-09-01T23:33:33.205585Z","level":"info","event":"ion O   1.619447000000000   1.789876000000000  32.257137999999998 1","chan":"stdout","logger":"task"}
{"timestamp":"2025-09-01T23:33:33.205995Z","level":"info","event":"ion O   3.238900000000000  11.598168000000001  29.452164000000000 1","chan":"stdout","logger":"task"}
{"timestamp":"2025-09-01T23:33:33.206316Z","level":"info","event":"ion O   3.238900000000000  17.826708000000000  29.452164000000003 1","chan":"stdout","logger":"task"}
{"timestamp":"2025-09-01T23:33:33.206754Z","level":"info","event":"ion O   1.619447000000000   8.018416000000002  32.257137999999998 1","chan":"stdout","logger":"task"}
{"timestamp":"2025-09-01T23:33:33.207292Z","level":"info","event":"ion O   1.619447000000000   1.789876000000000  37.867074000000002 1","chan":"stdout","logger":"task"}
{"timestamp":"2025-09-01T23:33:33.207729Z","level":"info","event":"ion-species GBRV/$ID_pbe.uspp","chan":"stdout","logger":"task"}
{"timestamp":"2025-09-01T23:33:33.207973Z","level":"info","event":"ion-width Ecut","chan":"stdout","logger":"task"}
{"timestamp":"2025-09-01T23:33:33.208266Z","level":"info","event":"ionic-minimize  \\","chan":"stdout","logger":"task"}
{"timestamp":"2025-09-01T23:33:33.208588Z","level":"info","event":"\tdirUpdateScheme      L-BFGS \\","chan":"stdout","logger":"task"}
{"timestamp":"2025-09-01T23:33:33.208913Z","level":"info","event":"\tlinminMethod         DirUpdateRecommended \\","chan":"stdout","logger":"task"}
{"timestamp":"2025-09-01T23:33:33.209169Z","level":"info","event":"\tnIterations          0 \\","chan":"stdout","logger":"task"}
{"timestamp":"2025-09-01T23:33:33.209431Z","level":"info","event":"\thistory              15 \\","chan":"stdout","logger":"task"}
{"timestamp":"2025-09-01T23:33:33.209906Z","level":"info","event":"\tknormThreshold       0.0001 \\","chan":"stdout","logger":"task"}
{"timestamp":"2025-09-01T23:33:33.210182Z","level":"info","event":"\tmaxThreshold         no \\","chan":"stdout","logger":"task"}
{"timestamp":"2025-09-01T23:33:33.210508Z","level":"info","event":"\tenergyDiffThreshold  1e-06 \\","chan":"stdout","logger":"task"}
{"timestamp":"2025-09-01T23:33:33.210822Z","level":"info","event":"\tnEnergyDiff          2 \\","chan":"stdout","logger":"task"}
{"timestamp":"2025-09-01T23:33:33.211043Z","level":"info","event":"\tconvergeAll          no \\","chan":"stdout","logger":"task"}
{"timestamp":"2025-09-01T23:33:33.211385Z","level":"info","event":"\talphaTstart          1 \\","chan":"stdout","logger":"task"}
{"timestamp":"2025-09-01T23:33:33.211629Z","level":"info","event":"\talphaTmin            1e-10 \\","chan":"stdout","logger":"task"}
{"timestamp":"2025-09-01T23:33:33.211836Z","level":"info","event":"\tupdateTestStepSize   yes \\","chan":"stdout","logger":"task"}
{"timestamp":"2025-09-01T23:33:33.212110Z","level":"info","event":"\talphaTreduceFactor   0.1 \\","chan":"stdout","logger":"task"}
{"timestamp":"2025-09-01T23:33:33.212310Z","level":"info","event":"\talphaTincreaseFactor 3 \\","chan":"stdout","logger":"task"}
{"timestamp":"2025-09-01T23:33:33.212498Z","level":"info","event":"\tnAlphaAdjustMax      3 \\","chan":"stdout","logger":"task"}
{"timestamp":"2025-09-01T23:33:33.212685Z","level":"info","event":"\twolfeEnergy          0.0001 \\","chan":"stdout","logger":"task"}
{"timestamp":"2025-09-01T23:33:33.212871Z","level":"info","event":"\twolfeGradient        0.9 \\","chan":"stdout","logger":"task"}
{"timestamp":"2025-09-01T23:33:33.213097Z","level":"info","event":"\tabortOnFailedStep    no \\","chan":"stdout","logger":"task"}
{"timestamp":"2025-09-01T23:33:33.213366Z","level":"info","event":"\tfdTest               no","chan":"stdout","logger":"task"}
{"timestamp":"2025-09-01T23:33:33.213665Z","level":"info","event":"kpoint   0.500000000000   0.500000000000   0.500000000000  1.00000000000000","chan":"stdout","logger":"task"}
{"timestamp":"2025-09-01T23:33:33.213971Z","level":"info","event":"kpoint-folding 1 1 1","chan":"stdout","logger":"task"}
{"timestamp":"2025-09-01T23:33:33.214229Z","level":"info","event":"latt-move-scale 1 1 1","chan":"stdout","logger":"task"}
{"timestamp":"2025-09-01T23:33:33.214434Z","level":"info","event":"latt-scale 1 1 1","chan":"stdout","logger":"task"}
{"timestamp":"2025-09-01T23:33:33.214682Z","level":"info","event":"lattice  \\","chan":"stdout","logger":"task"}
{"timestamp":"2025-09-01T23:33:33.218072Z","level":"info","event":"\t   4.858347000000000    0.000000000000000    0.000000000000000  \\","chan":"stdout","logger":"task"}
{"timestamp":"2025-09-01T23:33:33.218431Z","level":"info","event":"\t   0.000000000000000   19.616584000000000    0.000000000000000  \\","chan":"stdout","logger":"task"}
{"timestamp":"2025-09-01T23:33:33.218694Z","level":"info","event":"\t  -8.414906000000000   -5.609937000000000   61.709302000000001","chan":"stdout","logger":"task"}
{"timestamp":"2025-09-01T23:33:33.218967Z","level":"info","event":"lattice-minimize  \\","chan":"stdout","logger":"task"}
{"timestamp":"2025-09-01T23:33:33.219338Z","level":"info","event":"\tdirUpdateScheme      L-BFGS \\","chan":"stdout","logger":"task"}
{"timestamp":"2025-09-01T23:33:33.219704Z","level":"info","event":"\tlinminMethod         DirUpdateRecommended \\","chan":"stdout","logger":"task"}
{"timestamp":"2025-09-01T23:33:33.220042Z","level":"info","event":"\tnIterations          0 \\","chan":"stdout","logger":"task"}
{"timestamp":"2025-09-01T23:33:33.220444Z","level":"info","event":"\thistory              15 \\","chan":"stdout","logger":"task"}
{"timestamp":"2025-09-01T23:33:33.220828Z","level":"info","event":"\tknormThreshold       0 \\","chan":"stdout","logger":"task"}
{"timestamp":"2025-09-01T23:33:33.221539Z","level":"info","event":"\tmaxThreshold         no \\","chan":"stdout","logger":"task"}
{"timestamp":"2025-09-01T23:33:33.221872Z","level":"info","event":"\tenergyDiffThreshold  1e-06 \\","chan":"stdout","logger":"task"}
{"timestamp":"2025-09-01T23:33:33.222244Z","level":"info","event":"\tnEnergyDiff          2 \\","chan":"stdout","logger":"task"}
{"timestamp":"2025-09-01T23:33:33.222578Z","level":"info","event":"\tconvergeAll          no \\","chan":"stdout","logger":"task"}
{"timestamp":"2025-09-01T23:33:33.223059Z","level":"info","event":"\talphaTstart          1 \\","chan":"stdout","logger":"task"}
{"timestamp":"2025-09-01T23:33:33.223397Z","level":"info","event":"\talphaTmin            1e-10 \\","chan":"stdout","logger":"task"}
{"timestamp":"2025-09-01T23:33:33.223773Z","level":"info","event":"\tupdateTestStepSize   yes \\","chan":"stdout","logger":"task"}
{"timestamp":"2025-09-01T23:33:33.224073Z","level":"info","event":"\talphaTreduceFactor   0.1 \\","chan":"stdout","logger":"task"}
{"timestamp":"2025-09-01T23:33:33.224511Z","level":"info","event":"\talphaTincreaseFactor 3 \\","chan":"stdout","logger":"task"}
{"timestamp":"2025-09-01T23:33:33.224793Z","level":"info","event":"\tnAlphaAdjustMax      3 \\","chan":"stdout","logger":"task"}
{"timestamp":"2025-09-01T23:33:33.225255Z","level":"info","event":"\twolfeEnergy          0.0001 \\","chan":"stdout","logger":"task"}
{"timestamp":"2025-09-01T23:33:33.225595Z","level":"info","event":"\twolfeGradient        0.9 \\","chan":"stdout","logger":"task"}
{"timestamp":"2025-09-01T23:33:33.225931Z","level":"info","event":"\tabortOnFailedStep    no \\","chan":"stdout","logger":"task"}
{"timestamp":"2025-09-01T23:33:33.226359Z","level":"info","event":"\tfdTest               no","chan":"stdout","logger":"task"}
{"timestamp":"2025-09-01T23:33:33.226702Z","level":"info","event":"lcao-params 15 5e-05 0.00734","chan":"stdout","logger":"task"}
{"timestamp":"2025-09-01T23:33:33.227947Z","level":"info","event":"pcm-variant CANDLE","chan":"stdout","logger":"task"}
{"timestamp":"2025-09-01T23:33:33.228322Z","level":"info","event":"perturb-minimize  \\","chan":"stdout","logger":"task"}
{"timestamp":"2025-09-01T23:33:33.228933Z","level":"info","event":"\tnIterations            0 \\","chan":"stdout","logger":"task"}
{"timestamp":"2025-09-01T23:33:33.229865Z","level":"info","event":"\talgorithm              MINRES \\","chan":"stdout","logger":"task"}
{"timestamp":"2025-09-01T23:33:33.230204Z","level":"info","event":"\tresidualTol            0.0001 \\","chan":"stdout","logger":"task"}
{"timestamp":"2025-09-01T23:33:33.230569Z","level":"info","event":"\tresidualDiffThreshold  0.0001 \\","chan":"stdout","logger":"task"}
{"timestamp":"2025-09-01T23:33:33.230912Z","level":"info","event":"\tCGBypass               no \\","chan":"stdout","logger":"task"}
{"timestamp":"2025-09-01T23:33:33.231213Z","level":"info","event":"\trecomputeResidual      no","chan":"stdout","logger":"task"}
{"timestamp":"2025-09-01T23:33:33.231679Z","level":"info","event":"spintype no-spin","chan":"stdout","logger":"task"}
{"timestamp":"2025-09-01T23:33:33.231987Z","level":"info","event":"subspace-rotation-factor 1 yes","chan":"stdout","logger":"task"}
{"timestamp":"2025-09-01T23:33:33.232381Z","level":"info","event":"symmetries automatic","chan":"stdout","logger":"task"}
{"timestamp":"2025-09-01T23:33:33.232735Z","level":"info","event":"symmetry-threshold 0.0001","chan":"stdout","logger":"task"}
{"timestamp":"2025-09-01T23:33:33.233026Z","level":"info","event":"","chan":"stdout","logger":"task"}
{"timestamp":"2025-09-01T23:33:33.233897Z","level":"info","event":"","chan":"stdout","logger":"task"}
{"timestamp":"2025-09-01T23:33:33.234287Z","level":"info","event":"","chan":"stdout","logger":"task"}
{"timestamp":"2025-09-01T23:33:33.234799Z","level":"info","event":"---------- Setting up symmetries ----------","chan":"stdout","logger":"task"}
{"timestamp":"2025-09-01T23:33:33.235102Z","level":"info","event":"","chan":"stdout","logger":"task"}
{"timestamp":"2025-09-01T23:33:33.235423Z","level":"info","event":"Non-trivial transmission matrix:","chan":"stdout","logger":"task"}
{"timestamp":"2025-09-01T23:33:33.235786Z","level":"info","event":"[   1   0   5  ]","chan":"stdout","logger":"task"}
{"timestamp":"2025-09-01T23:33:33.236103Z","level":"info","event":"[   0   1   0  ]","chan":"stdout","logger":"task"}
{"timestamp":"2025-09-01T23:33:33.236524Z","level":"info","event":"[   0   0   1  ]","chan":"stdout","logger":"task"}
{"timestamp":"2025-09-01T23:33:33.236907Z","level":"info","event":"with reduced lattice vectors:","chan":"stdout","logger":"task"}
{"timestamp":"2025-09-01T23:33:33.237246Z","level":"info","event":"[      4.858347      0.000000     24.291735  ]","chan":"stdout","logger":"task"}
{"timestamp":"2025-09-01T23:33:33.237542Z","level":"info","event":"[      0.000000     19.616584      0.000000  ]","chan":"stdout","logger":"task"}
{"timestamp":"2025-09-01T23:33:33.238040Z","level":"info","event":"[     -8.414906     -5.609937     19.634772  ]","chan":"stdout","logger":"task"}
{"timestamp":"2025-09-01T23:33:33.238351Z","level":"info","event":"","chan":"stdout","logger":"task"}
{"timestamp":"2025-09-01T23:33:33.238665Z","level":"info","event":"Found 4 point-group symmetries of the bravais lattice","chan":"stdout","logger":"task"}
{"timestamp":"2025-09-01T23:33:33.239017Z","level":"info","event":"Found 2 space-group symmetries with basis","chan":"stdout","logger":"task"}
{"timestamp":"2025-09-01T23:33:33.239370Z","level":"info","event":"Applied RMS atom displacement 4.06845e-07 bohrs to make symmetries exact.","chan":"stdout","logger":"task"}
{"timestamp":"2025-09-01T23:33:34.077706Z","level":"info","event":"","chan":"stdout","logger":"task"}
{"timestamp":"2025-09-01T23:33:34.079357Z","level":"info","event":"---------- Initializing the Grid ----------","chan":"stdout","logger":"task"}
{"timestamp":"2025-09-01T23:33:34.079756Z","level":"info","event":"R =","chan":"stdout","logger":"task"}
{"timestamp":"2025-09-01T23:33:34.080084Z","level":"info","event":"[      4.85835            0            0  ]","chan":"stdout","logger":"task"}
{"timestamp":"2025-09-01T23:33:34.080428Z","level":"info","event":"[            0      19.6166            0  ]","chan":"stdout","logger":"task"}
{"timestamp":"2025-09-01T23:33:34.081272Z","level":"info","event":"[     -8.41491     -5.60994      61.7093  ]","chan":"stdout","logger":"task"}
{"timestamp":"2025-09-01T23:33:34.086151Z","level":"info","event":"unit cell volume = 5881.15","chan":"stdout","logger":"task"}
{"timestamp":"2025-09-01T23:33:34.086840Z","level":"info","event":"G =","chan":"stdout","logger":"task"}
{"timestamp":"2025-09-01T23:33:34.087434Z","level":"info","event":"[    1.29328         -0          0  ]","chan":"stdout","logger":"task"}
{"timestamp":"2025-09-01T23:33:34.087911Z","level":"info","event":"[         -0     0.3203          0  ]","chan":"stdout","logger":"task"}
{"timestamp":"2025-09-01T23:33:34.089463Z","level":"info","event":"[   0.176356  0.0291182   0.101819  ]","chan":"stdout","logger":"task"}
{"timestamp":"2025-09-01T23:33:34.090023Z","level":"info","event":"Minimum fftbox size, Smin = [  28  60  176  ]","chan":"stdout","logger":"task"}
{"timestamp":"2025-09-01T23:33:34.090391Z","level":"info","event":"WARNING: Symmetries require anisotropic S to include FFT-unsupported factors. Falling back to isotropic solution.","chan":"stdout","logger":"task"}
{"timestamp":"2025-09-01T23:33:34.090752Z","level":"info","event":"Chosen fftbox size, S = [  180  180  180  ]","chan":"stdout","logger":"task"}
{"timestamp":"2025-09-01T23:33:34.091303Z","level":"info","event":"","chan":"stdout","logger":"task"}
{"timestamp":"2025-09-01T23:33:34.091690Z","level":"info","event":"---------- Exchange Correlation functional ----------","chan":"stdout","logger":"task"}
{"timestamp":"2025-09-01T23:33:34.092135Z","level":"info","event":"Initalized PBE GGA exchange.","chan":"stdout","logger":"task"}
{"timestamp":"2025-09-01T23:33:34.092629Z","level":"info","event":"Initalized PBE GGA correlation.","chan":"stdout","logger":"task"}
{"timestamp":"2025-09-01T23:33:34.093457Z","level":"info","event":"","chan":"stdout","logger":"task"}
{"timestamp":"2025-09-01T23:33:34.093834Z","level":"info","event":"---------- Setting up pseudopotentials ----------","chan":"stdout","logger":"task"}
{"timestamp":"2025-09-01T23:33:34.095745Z","level":"info","event":"Width of ionic core gaussian charges (only for fluid interactions / plotting) set to 0.561985","chan":"stdout","logger":"task"}
{"timestamp":"2025-09-01T23:33:34.096167Z","level":"info","event":"","chan":"stdout","logger":"task"}
{"timestamp":"2025-09-01T23:33:34.097054Z","level":"info","event":"Reading pseudopotential file '/opt/jdftx-master/build/pseudopotentials/GBRV/v_pbe.uspp':","chan":"stdout","logger":"task"}
{"timestamp":"2025-09-01T23:33:34.097355Z","level":"info","event":"  Title: V.  Created by USPP 7.3.6 on 31-3-15","chan":"stdout","logger":"task"}
{"timestamp":"2025-09-01T23:33:34.097969Z","level":"info","event":"  Reference state energy: -72.228583.  13 valence electrons in orbitals:","chan":"stdout","logger":"task"}
{"timestamp":"2025-09-01T23:33:34.098385Z","level":"info","event":"    |300>  occupation: 2  eigenvalue: -2.581040","chan":"stdout","logger":"task"}
{"timestamp":"2025-09-01T23:33:34.098719Z","level":"info","event":"    |310>  occupation: 6  eigenvalue: -1.618497","chan":"stdout","logger":"task"}
{"timestamp":"2025-09-01T23:33:34.099146Z","level":"info","event":"    |400>  occupation: 2  eigenvalue: -0.172800","chan":"stdout","logger":"task"}
{"timestamp":"2025-09-01T23:33:34.099548Z","level":"info","event":"    |320>  occupation: 3  eigenvalue: -0.189802","chan":"stdout","logger":"task"}
{"timestamp":"2025-09-01T23:33:34.099895Z","level":"info","event":"  lMax: 2  lLocal: 3  QijEcut: 6","chan":"stdout","logger":"task"}
{"timestamp":"2025-09-01T23:33:34.100191Z","level":"info","event":"  6 projectors sampled on a log grid with 593 points:","chan":"stdout","logger":"task"}
{"timestamp":"2025-09-01T23:33:34.100597Z","level":"info","event":"    l: 0  eig: -2.581041  rCut: 1.5","chan":"stdout","logger":"task"}
{"timestamp":"2025-09-01T23:33:34.100886Z","level":"info","event":"    l: 0  eig: -0.172801  rCut: 1.5","chan":"stdout","logger":"task"}
{"timestamp":"2025-09-01T23:33:34.101427Z","level":"info","event":"    l: 1  eig: -1.618497  rCut: 1.6","chan":"stdout","logger":"task"}
{"timestamp":"2025-09-01T23:33:34.102220Z","level":"info","event":"    l: 1  eig: 0.150000  rCut: 1.6","chan":"stdout","logger":"task"}
{"timestamp":"2025-09-01T23:33:34.102722Z","level":"info","event":"    l: 2  eig: -0.189802  rCut: 1.7","chan":"stdout","logger":"task"}
{"timestamp":"2025-09-01T23:33:34.103097Z","level":"info","event":"    l: 2  eig: 0.150000  rCut: 1.7","chan":"stdout","logger":"task"}
{"timestamp":"2025-09-01T23:33:34.103440Z","level":"info","event":"  Partial core density with radius 0.8","chan":"stdout","logger":"task"}
{"timestamp":"2025-09-01T23:33:34.103736Z","level":"info","event":"  Transforming core density to a uniform radial grid of dG=0.02 with 6819 points.","chan":"stdout","logger":"task"}
{"timestamp":"2025-09-01T23:33:34.104066Z","level":"info","event":"  Transforming local potential to a uniform radial grid of dG=0.02 with 6819 points.","chan":"stdout","logger":"task"}
{"timestamp":"2025-09-01T23:33:34.104641Z","level":"info","event":"  Transforming nonlocal projectors to a uniform radial grid of dG=0.02 with 307 points.","chan":"stdout","logger":"task"}
{"timestamp":"2025-09-01T23:33:34.105229Z","level":"info","event":"  Transforming density augmentations to a uniform radial grid of dG=0.02 with 6819 points.","chan":"stdout","logger":"task"}
{"timestamp":"2025-09-01T23:33:34.105868Z","level":"info","event":"  Transforming atomic orbitals to a uniform radial grid of dG=0.02 with 307 points.","chan":"stdout","logger":"task"}
{"timestamp":"2025-09-01T23:33:34.616336Z","level":"info","event":"  Core radius for overlap checks: 1.80 bohrs.","chan":"stdout","logger":"task"}
{"timestamp":"2025-09-01T23:33:34.616747Z","level":"info","event":"","chan":"stdout","logger":"task"}
{"timestamp":"2025-09-01T23:33:34.617139Z","level":"info","event":"Reading pseudopotential file '/opt/jdftx-master/build/pseudopotentials/GBRV/o_pbe.uspp':","chan":"stdout","logger":"task"}
{"timestamp":"2025-09-01T23:33:34.617634Z","level":"info","event":"  Title: O.  Created by USPP 7.3.6 on 3-2-2014","chan":"stdout","logger":"task"}
{"timestamp":"2025-09-01T23:33:34.617996Z","level":"info","event":"  Reference state energy: -15.894388.  6 valence electrons in orbitals:","chan":"stdout","logger":"task"}
{"timestamp":"2025-09-01T23:33:34.618920Z","level":"info","event":"    |200>  occupation: 2  eigenvalue: -0.878823","chan":"stdout","logger":"task"}
{"timestamp":"2025-09-01T23:33:34.619410Z","level":"info","event":"    |210>  occupation: 4  eigenvalue: -0.332131","chan":"stdout","logger":"task"}
{"timestamp":"2025-09-01T23:33:34.619811Z","level":"info","event":"  lMax: 2  lLocal: 2  QijEcut: 6","chan":"stdout","logger":"task"}
{"timestamp":"2025-09-01T23:33:34.620085Z","level":"info","event":"  5 projectors sampled on a log grid with 511 points:","chan":"stdout","logger":"task"}
{"timestamp":"2025-09-01T23:33:34.620360Z","level":"info","event":"    l: 0  eig: -0.878823  rCut: 1.25","chan":"stdout","logger":"task"}
{"timestamp":"2025-09-01T23:33:34.620718Z","level":"info","event":"    l: 0  eig: 0.000000  rCut: 1.25","chan":"stdout","logger":"task"}
{"timestamp":"2025-09-01T23:33:34.621083Z","level":"info","event":"    l: 1  eig: -0.332132  rCut: 1.25","chan":"stdout","logger":"task"}
{"timestamp":"2025-09-01T23:33:34.621421Z","level":"info","event":"    l: 1  eig: 0.000000  rCut: 1.25","chan":"stdout","logger":"task"}
{"timestamp":"2025-09-01T23:33:34.621654Z","level":"info","event":"    l: 2  eig: 1.000000  rCut: 1.25","chan":"stdout","logger":"task"}
{"timestamp":"2025-09-01T23:33:34.623094Z","level":"info","event":"  Partial core density with radius 0.7","chan":"stdout","logger":"task"}
{"timestamp":"2025-09-01T23:33:34.623387Z","level":"info","event":"  Transforming core density to a uniform radial grid of dG=0.02 with 6819 points.","chan":"stdout","logger":"task"}
{"timestamp":"2025-09-01T23:33:34.623640Z","level":"info","event":"  Transforming local potential to a uniform radial grid of dG=0.02 with 6819 points.","chan":"stdout","logger":"task"}
{"timestamp":"2025-09-01T23:33:34.623879Z","level":"info","event":"  Transforming nonlocal projectors to a uniform radial grid of dG=0.02 with 307 points.","chan":"stdout","logger":"task"}
{"timestamp":"2025-09-01T23:33:34.624139Z","level":"info","event":"  Transforming density augmentations to a uniform radial grid of dG=0.02 with 6819 points.","chan":"stdout","logger":"task"}
{"timestamp":"2025-09-01T23:33:34.624381Z","level":"info","event":"  Transforming atomic orbitals to a uniform radial grid of dG=0.02 with 307 points.","chan":"stdout","logger":"task"}
{"timestamp":"2025-09-01T23:33:36.872532Z","level":"info","event":"  Core radius for overlap checks: 1.25 bohrs.","chan":"stdout","logger":"task"}
{"timestamp":"2025-09-01T23:33:36.872923Z","level":"info","event":"","chan":"stdout","logger":"task"}
{"timestamp":"2025-09-01T23:33:36.873231Z","level":"info","event":"Initialized 2 species with 24 total atoms.","chan":"stdout","logger":"task"}
{"timestamp":"2025-09-01T23:33:36.873518Z","level":"info","event":"","chan":"stdout","logger":"task"}
{"timestamp":"2025-09-01T23:33:36.873745Z","level":"info","event":"Folded 1 k-points by 1x1x1 to 1 k-points.","chan":"stdout","logger":"task"}
{"timestamp":"2025-09-01T23:33:36.874005Z","level":"info","event":"","chan":"stdout","logger":"task"}
{"timestamp":"2025-09-01T23:33:36.874291Z","level":"info","event":"---------- Setting up k-points, bands, fillings ----------","chan":"stdout","logger":"task"}
{"timestamp":"2025-09-01T23:33:36.874618Z","level":"info","event":"","chan":"stdout","logger":"task"}
{"timestamp":"2025-09-01T23:33:36.874908Z","level":"info","event":"WARNING: k-mesh symmetries are a subgroup of size 1","chan":"stdout","logger":"task"}
{"timestamp":"2025-09-01T23:33:36.875147Z","level":"info","event":"The effectively sampled k-mesh is a superset of the specified one,","chan":"stdout","logger":"task"}
{"timestamp":"2025-09-01T23:33:36.875353Z","level":"info","event":"and the answers need not match those with symmetries turned off.","chan":"stdout","logger":"task"}
{"timestamp":"2025-09-01T23:33:36.875560Z","level":"info","event":"No reducable k-points.","chan":"stdout","logger":"task"}
{"timestamp":"2025-09-01T23:33:36.875886Z","level":"info","event":"Computing the number of bands and number of electrons","chan":"stdout","logger":"task"}
{"timestamp":"2025-09-01T23:33:36.876229Z","level":"info","event":"Calculating initial fillings.","chan":"stdout","logger":"task"}
{"timestamp":"2025-09-01T23:33:36.876653Z","level":"info","event":"nElectrons: 199.900000   nBands: 144   nStates: 1","chan":"stdout","logger":"task"}
{"timestamp":"2025-09-01T23:33:36.876880Z","level":"info","event":"","chan":"stdout","logger":"task"}
{"timestamp":"2025-09-01T23:33:36.877116Z","level":"info","event":"----- Setting up reduced wavefunction bases (one per k-point) -----","chan":"stdout","logger":"task"}
{"timestamp":"2025-09-01T23:33:36.877335Z","level":"info","event":"average nbasis = 8890.000 , ideal nbasis = 8882.936","chan":"stdout","logger":"task"}
{"timestamp":"2025-09-01T23:33:46.201213Z","level":"info","event":"","chan":"stdout","logger":"task"}
{"timestamp":"2025-09-01T23:33:46.203494Z","level":"info","event":"Initializing DFT-D2 calculator for fluid / solvation:","chan":"stdout","logger":"task"}
{"timestamp":"2025-09-01T23:33:46.203957Z","level":"info","event":"\t V:  C6:  187.33 Eh-a0^6  R0: 2.952 a0","chan":"stdout","logger":"task"}
{"timestamp":"2025-09-01T23:33:46.205397Z","level":"info","event":"\t O:  C6:   12.14 Eh-a0^6  R0: 2.536 a0","chan":"stdout","logger":"task"}
{"timestamp":"2025-09-01T23:33:46.206432Z","level":"info","event":"","chan":"stdout","logger":"task"}
{"timestamp":"2025-09-01T23:33:46.210400Z","level":"info","event":"---------- Setting up ewald sum ----------","chan":"stdout","logger":"task"}
{"timestamp":"2025-09-01T23:33:46.211840Z","level":"info","event":"Optimum gaussian width for ewald sums = 4.260641 bohr.","chan":"stdout","logger":"task"}
{"timestamp":"2025-09-01T23:33:46.213456Z","level":"info","event":"Real space sum over 1323 unit cells with max indices [  10  4  3  ]","chan":"stdout","logger":"task"}
{"timestamp":"2025-09-01T23:33:46.214001Z","level":"info","event":"Reciprocal space sum over 9823 terms with max indices [  5  9  23  ]","chan":"stdout","logger":"task"}
{"timestamp":"2025-09-01T23:33:46.214607Z","level":"info","event":"","chan":"stdout","logger":"task"}
{"timestamp":"2025-09-01T23:33:46.215095Z","level":"info","event":"---------- Allocating electronic variables ----------","chan":"stdout","logger":"task"}
{"timestamp":"2025-09-01T23:38:50.724108Z","level":"info","event":"Initializing wave functions:  linear combination of atomic orbitals","chan":"stdout","logger":"task"}
{"timestamp":"2025-09-01T23:38:50.724615Z","level":"info","event":"V pseudo-atom occupations:   s ( 2 0 )  p ( 6 )  d ( 5 )","chan":"stdout","logger":"task"}
{"timestamp":"2025-09-01T23:38:50.724933Z","level":"info","event":"O pseudo-atom occupations:   s ( 2 )  p ( 4 )","chan":"stdout","logger":"task"}
{"timestamp":"2025-09-01T23:38:50.725450Z","level":"info","event":"\tFillingsUpdate:  mu: +1.766849767  nElectrons: 199.900000","chan":"stdout","logger":"task"}
{"timestamp":"2025-09-01T23:38:50.725853Z","level":"info","event":"LCAOMinimize: Iter:   0  F: -720.1883664104284435  |grad|_K:  7.125e-02  alpha:  1.000e+00","chan":"stdout","logger":"task"}
{"timestamp":"2025-09-01T23:41:32.628778Z","level":"info","event":"\tFillingsUpdate:  mu: -0.455759515  nElectrons: 199.900000","chan":"stdout","logger":"task"}
{"timestamp":"2025-09-01T23:41:32.629380Z","level":"info","event":"LCAOMinimize: Iter:   1  F: -769.1744495969516038  |grad|_K:  6.835e-02  alpha:  8.630e-01  linmin:  5.552e-02  cgtest: -1.049e+00  t[s]:    479.47","chan":"stdout","logger":"task"}
{"timestamp":"2025-09-01T23:41:32.630849Z","level":"info","event":"LCAOMinimize: \tBad step direction: g.d > 0.","chan":"stdout","logger":"task"}
{"timestamp":"2025-09-01T23:43:17.590271Z","level":"info","event":"LCAOMinimize: \tUndoing step.","chan":"stdout","logger":"task"}
{"timestamp":"2025-09-01T23:43:17.590650Z","level":"info","event":"LCAOMinimize: \tStep failed: resetting search direction.","chan":"stdout","logger":"task"}
{"timestamp":"2025-09-01T23:43:17.594334Z","level":"info","event":"\tFillingsUpdate:  mu: -0.455759515  nElectrons: 199.900000","chan":"stdout","logger":"task"}
{"timestamp":"2025-09-01T23:43:17.594632Z","level":"info","event":"LCAOMinimize: Iter:   2  F: -769.1744495969520585  |grad|_K:  6.835e-02  alpha:  0.000e+00","chan":"stdout","logger":"task"}
{"timestamp":"2025-09-01T23:45:56.692458Z","level":"info","event":"\tFillingsUpdate:  mu: -0.070809436  nElectrons: 199.900000","chan":"stdout","logger":"task"}
{"timestamp":"2025-09-01T23:45:56.693071Z","level":"info","event":"LCAOMinimize: Iter:   3  F: -804.9590276891041185  |grad|_K:  2.738e-02  alpha:  2.757e-01  linmin: -5.650e-02  cgtest:  8.493e-01  t[s]:    743.53","chan":"stdout","logger":"task"}
{"timestamp":"2025-09-01T23:45:56.693479Z","level":"info","event":"LCAOMinimize: Encountered beta<0, resetting CG.","chan":"stdout","logger":"task"}
{"timestamp":"2025-09-01T23:46:44.990993Z","level":"info","event":"LCAOMinimize: \tWrong curvature in test step, increasing alphaT to 8.272104e-01.","chan":"stdout","logger":"task"}
{"timestamp":"2025-09-01T23:48:35.831651Z","level":"info","event":"\tFillingsUpdate:  mu: -0.024669502  nElectrons: 199.900000","chan":"stdout","logger":"task"}
{"timestamp":"2025-09-01T23:48:35.832276Z","level":"info","event":"LCAOMinimize: Iter:   4  F: -812.2265689581942070  |grad|_K:  3.648e-02  alpha: -2.050e-01  linmin: -1.700e-01  cgtest:  4.833e-01  t[s]:    902.67","chan":"stdout","logger":"task"}
{"timestamp":"2025-09-01T23:51:14.065287Z","level":"info","event":"LCAOMinimize: \tStep increased F by 5.439809e+01, reducing alpha to 2.028243e-02.","chan":"stdout","logger":"task"}
{"timestamp":"2025-09-01T23:53:03.190714Z","level":"info","event":"\tFillingsUpdate:  mu: +0.177821176  nElectrons: 199.900000","chan":"stdout","logger":"task"}
{"timestamp":"2025-09-01T23:53:03.191447Z","level":"info","event":"LCAOMinimize: Iter:   5  F: -813.3790938373974768  |grad|_K:  4.820e-02  alpha:  2.028e-02  linmin: -2.264e-02  cgtest:  3.597e-01  t[s]:   1170.03","chan":"stdout","logger":"task"}
{"timestamp":"2025-09-01T23:53:49.443337Z","level":"info","event":"LCAOMinimize: \tWrong curvature in test step, increasing alphaT to 6.084730e-02.","chan":"stdout","logger":"task"}
{"timestamp":"2025-09-01T23:55:46.775990Z","level":"info","event":"\tFillingsUpdate:  mu: +0.127468699  nElectrons: 199.900000","chan":"stdout","logger":"task"}
{"timestamp":"2025-09-01T23:55:46.776641Z","level":"info","event":"LCAOMinimize: Iter:   6  F: -816.7506991412710704  |grad|_K:  3.829e-02  alpha: -8.893e-03  linmin: -1.359e-01  cgtest:  6.545e-01  t[s]:   1333.61","chan":"stdout","logger":"task"}
{"timestamp":"2025-09-01T23:57:17.446591Z","level":"error","event":"Server indicated the task shouldn't be running anymore. Terminating process","detail":{"detail":{"reason":"not_running","message":"TI is no longer in the running state and task should terminate","current_state":"failed"}},"logger":"task"}
{"timestamp":"2025-09-01T23:57:27.457748Z","level":"error","event":"Task killed!","logger":"task"}
{"timestamp":"2025-09-01T23:58:24.019475Z","level":"info","event":"\tFillingsUpdate:  mu: -0.247465118  nElectrons: 199.900000","chan":"stdout","logger":"task"}
{"timestamp":"2025-09-01T23:58:24.020083Z","level":"info","event":"LCAOMinimize: Iter:   7  F: -820.0002500036641777  |grad|_K:  8.976e-02  alpha:  1.360e-01  linmin:  7.034e-02  cgtest: -3.485e-01  t[s]:   1490.86","chan":"stdout","logger":"task"}
{"timestamp":"2025-09-01T23:58:24.020420Z","level":"info","event":"LCAOMinimize: \tBad step direction: g.d > 0.","chan":"stdout","logger":"task"}
