{"timestamp":"2025-09-01T20:40:21.021217","level":"info","event":"DAG bundles loaded: dags-folder","logger":"airflow.dag_processing.bundles.manager.DagBundlesManager"}
{"timestamp":"2025-09-01T20:40:21.022145","level":"info","event":"Filling up the DagBag from /opt/airflow/dags/my_dag.py","logger":"airflow.models.dagbag.DagBag"}
{"timestamp":"2025-09-01T20:40:25.829172Z","level":"info","event":"","chan":"stdout","logger":"task"}
{"timestamp":"2025-09-01T20:40:25.829803Z","level":"info","event":"*************** JDFTx 1.7.0  ***************","chan":"stdout","logger":"task"}
{"timestamp":"2025-09-01T20:40:25.830503Z","level":"info","event":"","chan":"stdout","logger":"task"}
{"timestamp":"2025-09-01T20:40:25.840474Z","level":"info","event":"Start date and time: Mon Sep  1 20:40:25 2025","chan":"stdout","logger":"task"}
{"timestamp":"2025-09-01T20:40:25.841071Z","level":"info","event":"Executable jdftx with command-line: -i /opt/airflow/output/gc_dft/mp-1393040-111-2_-0.1.in","chan":"stdout","logger":"task"}
{"timestamp":"2025-09-01T20:40:25.843630Z","level":"info","event":"Running on hosts (process indices):  41a82e7e5a55 (0)","chan":"stdout","logger":"task"}
{"timestamp":"2025-09-01T20:40:25.844294Z","level":"info","event":"Divided in process groups (process indices):  0 (0)","chan":"stdout","logger":"task"}
{"timestamp":"2025-09-01T20:40:25.845045Z","level":"info","event":"Resource initialization completed at t[s]:      0.00","chan":"stdout","logger":"task"}
{"timestamp":"2025-09-01T20:40:25.845590Z","level":"info","event":"Run totals: 1 processes, 8 threads, 0 GPUs","chan":"stdout","logger":"task"}
{"timestamp":"2025-09-01T20:40:25.845973Z","level":"info","event":"","chan":"stdout","logger":"task"}
{"timestamp":"2025-09-01T20:40:25.846293Z","level":"info","event":"","chan":"stdout","logger":"task"}
{"timestamp":"2025-09-01T20:40:25.846634Z","level":"info","event":"Input parsed successfully to the following command list (including defaults):","chan":"stdout","logger":"task"}
{"timestamp":"2025-09-01T20:40:25.846959Z","level":"info","event":"","chan":"stdout","logger":"task"}
{"timestamp":"2025-09-01T20:40:25.847245Z","level":"info","event":"basis kpoint-dependent","chan":"stdout","logger":"task"}
{"timestamp":"2025-09-01T20:40:25.852108Z","level":"info","event":"coords-type Cartesian","chan":"stdout","logger":"task"}
{"timestamp":"2025-09-01T20:40:25.852971Z","level":"info","event":"core-overlap-check vector","chan":"stdout","logger":"task"}
{"timestamp":"2025-09-01T20:40:25.853475Z","level":"info","event":"coulomb-interaction Periodic","chan":"stdout","logger":"task"}
{"timestamp":"2025-09-01T20:40:25.853846Z","level":"info","event":"davidson-band-ratio 1.1","chan":"stdout","logger":"task"}
{"timestamp":"2025-09-01T20:40:25.854279Z","level":"info","event":"dump End State","chan":"stdout","logger":"task"}
{"timestamp":"2025-09-01T20:40:25.854667Z","level":"info","event":"dump-name $VAR","chan":"stdout","logger":"task"}
{"timestamp":"2025-09-01T20:40:25.855100Z","level":"info","event":"elec-cutoff 10","chan":"stdout","logger":"task"}
{"timestamp":"2025-09-01T20:40:25.855465Z","level":"info","event":"elec-eigen-algo Davidson","chan":"stdout","logger":"task"}
{"timestamp":"2025-09-01T20:40:25.855821Z","level":"info","event":"elec-ex-corr gga-PBE","chan":"stdout","logger":"task"}
{"timestamp":"2025-09-01T20:40:25.856499Z","level":"info","event":"elec-initial-charge -0.100000","chan":"stdout","logger":"task"}
{"timestamp":"2025-09-01T20:40:25.856900Z","level":"info","event":"elec-smearing Fermi 0.00734","chan":"stdout","logger":"task"}
{"timestamp":"2025-09-01T20:40:25.857301Z","level":"info","event":"electronic-minimize  \\","chan":"stdout","logger":"task"}
{"timestamp":"2025-09-01T20:40:25.857824Z","level":"info","event":"\tdirUpdateScheme      FletcherReeves \\","chan":"stdout","logger":"task"}
{"timestamp":"2025-09-01T20:40:25.858365Z","level":"info","event":"\tlinminMethod         DirUpdateRecommended \\","chan":"stdout","logger":"task"}
{"timestamp":"2025-09-01T20:40:25.858652Z","level":"info","event":"\tnIterations          30 \\","chan":"stdout","logger":"task"}
{"timestamp":"2025-09-01T20:40:25.859009Z","level":"info","event":"\thistory              15 \\","chan":"stdout","logger":"task"}
{"timestamp":"2025-09-01T20:40:25.859332Z","level":"info","event":"\tknormThreshold       0 \\","chan":"stdout","logger":"task"}
{"timestamp":"2025-09-01T20:40:25.859644Z","level":"info","event":"\tmaxThreshold         no \\","chan":"stdout","logger":"task"}
{"timestamp":"2025-09-01T20:40:25.859932Z","level":"info","event":"\tenergyDiffThreshold  1e-05 \\","chan":"stdout","logger":"task"}
{"timestamp":"2025-09-01T20:40:25.860258Z","level":"info","event":"\tnEnergyDiff          2 \\","chan":"stdout","logger":"task"}
{"timestamp":"2025-09-01T20:40:25.860582Z","level":"info","event":"\tconvergeAll          no \\","chan":"stdout","logger":"task"}
{"timestamp":"2025-09-01T20:40:25.860858Z","level":"info","event":"\talphaTstart          1 \\","chan":"stdout","logger":"task"}
{"timestamp":"2025-09-01T20:40:25.861114Z","level":"info","event":"\talphaTmin            1e-10 \\","chan":"stdout","logger":"task"}
{"timestamp":"2025-09-01T20:40:25.861395Z","level":"info","event":"\tupdateTestStepSize   yes \\","chan":"stdout","logger":"task"}
{"timestamp":"2025-09-01T20:40:25.861712Z","level":"info","event":"\talphaTreduceFactor   0.1 \\","chan":"stdout","logger":"task"}
{"timestamp":"2025-09-01T20:40:25.862013Z","level":"info","event":"\talphaTincreaseFactor 3 \\","chan":"stdout","logger":"task"}
{"timestamp":"2025-09-01T20:40:25.862270Z","level":"info","event":"\tnAlphaAdjustMax      3 \\","chan":"stdout","logger":"task"}
{"timestamp":"2025-09-01T20:40:25.862507Z","level":"info","event":"\twolfeEnergy          0.0001 \\","chan":"stdout","logger":"task"}
{"timestamp":"2025-09-01T20:40:25.862740Z","level":"info","event":"\twolfeGradient        0.9 \\","chan":"stdout","logger":"task"}
{"timestamp":"2025-09-01T20:40:25.863000Z","level":"info","event":"\tabortOnFailedStep    no \\","chan":"stdout","logger":"task"}
{"timestamp":"2025-09-01T20:40:25.863263Z","level":"info","event":"\tfdTest               no","chan":"stdout","logger":"task"}
{"timestamp":"2025-09-01T20:40:25.863544Z","level":"info","event":"exchange-regularization WignerSeitzTruncated","chan":"stdout","logger":"task"}
{"timestamp":"2025-09-01T20:40:25.863802Z","level":"info","event":"fluid LinearPCM 298.000000 1.013250","chan":"stdout","logger":"task"}
{"timestamp":"2025-09-01T20:40:25.864068Z","level":"info","event":"fluid-anion F- 1 MeanFieldLJ \\","chan":"stdout","logger":"task"}
{"timestamp":"2025-09-01T20:40:25.864347Z","level":"info","event":"\tepsBulk 1 \\","chan":"stdout","logger":"task"}
{"timestamp":"2025-09-01T20:40:25.864746Z","level":"info","event":"\tpMol 0 \\","chan":"stdout","logger":"task"}
{"timestamp":"2025-09-01T20:40:25.865004Z","level":"info","event":"\tepsInf 1 \\","chan":"stdout","logger":"task"}
{"timestamp":"2025-09-01T20:40:25.865248Z","level":"info","event":"\tPvap 0 \\","chan":"stdout","logger":"task"}
{"timestamp":"2025-09-01T20:40:25.865571Z","level":"info","event":"\tsigmaBulk 0 \\","chan":"stdout","logger":"task"}
{"timestamp":"2025-09-01T20:40:25.866168Z","level":"info","event":"\tRvdw 2.24877 \\","chan":"stdout","logger":"task"}
{"timestamp":"2025-09-01T20:40:25.866483Z","level":"info","event":"\tRes 0 \\","chan":"stdout","logger":"task"}
{"timestamp":"2025-09-01T20:40:25.866803Z","level":"info","event":"\ttauNuc 343133","chan":"stdout","logger":"task"}
{"timestamp":"2025-09-01T20:40:25.867196Z","level":"info","event":"fluid-cation Na+ 1 MeanFieldLJ \\","chan":"stdout","logger":"task"}
{"timestamp":"2025-09-01T20:40:25.867456Z","level":"info","event":"\tepsBulk 1 \\","chan":"stdout","logger":"task"}
{"timestamp":"2025-09-01T20:40:25.867709Z","level":"info","event":"\tpMol 0 \\","chan":"stdout","logger":"task"}
{"timestamp":"2025-09-01T20:40:25.867955Z","level":"info","event":"\tepsInf 1 \\","chan":"stdout","logger":"task"}
{"timestamp":"2025-09-01T20:40:25.868285Z","level":"info","event":"\tPvap 0 \\","chan":"stdout","logger":"task"}
{"timestamp":"2025-09-01T20:40:25.868612Z","level":"info","event":"\tsigmaBulk 0 \\","chan":"stdout","logger":"task"}
{"timestamp":"2025-09-01T20:40:25.869032Z","level":"info","event":"\tRvdw 2.19208 \\","chan":"stdout","logger":"task"}
{"timestamp":"2025-09-01T20:40:25.869277Z","level":"info","event":"\tRes 0 \\","chan":"stdout","logger":"task"}
{"timestamp":"2025-09-01T20:40:25.869507Z","level":"info","event":"\ttauNuc 343133","chan":"stdout","logger":"task"}
{"timestamp":"2025-09-01T20:40:25.870026Z","level":"info","event":"fluid-ex-corr lda-TF lda-PZ","chan":"stdout","logger":"task"}
{"timestamp":"2025-09-01T20:40:25.870401Z","level":"info","event":"fluid-gummel-loop 10 1.000000e-05","chan":"stdout","logger":"task"}
{"timestamp":"2025-09-01T20:40:25.870739Z","level":"info","event":"fluid-minimize  \\","chan":"stdout","logger":"task"}
{"timestamp":"2025-09-01T20:40:25.871107Z","level":"info","event":"\tdirUpdateScheme      PolakRibiere \\","chan":"stdout","logger":"task"}
{"timestamp":"2025-09-01T20:40:25.871473Z","level":"info","event":"\tlinminMethod         DirUpdateRecommended \\","chan":"stdout","logger":"task"}
{"timestamp":"2025-09-01T20:40:25.872773Z","level":"info","event":"\tnIterations          400 \\","chan":"stdout","logger":"task"}
{"timestamp":"2025-09-01T20:40:25.873155Z","level":"info","event":"\thistory              15 \\","chan":"stdout","logger":"task"}
{"timestamp":"2025-09-01T20:40:25.873510Z","level":"info","event":"\tknormThreshold       1e-11 \\","chan":"stdout","logger":"task"}
{"timestamp":"2025-09-01T20:40:25.873879Z","level":"info","event":"\tmaxThreshold         no \\","chan":"stdout","logger":"task"}
{"timestamp":"2025-09-01T20:40:25.874301Z","level":"info","event":"\tenergyDiffThreshold  0 \\","chan":"stdout","logger":"task"}
{"timestamp":"2025-09-01T20:40:25.874649Z","level":"info","event":"\tnEnergyDiff          2 \\","chan":"stdout","logger":"task"}
{"timestamp":"2025-09-01T20:40:25.875007Z","level":"info","event":"\tconvergeAll          no \\","chan":"stdout","logger":"task"}
{"timestamp":"2025-09-01T20:40:25.875759Z","level":"info","event":"\talphaTstart          1 \\","chan":"stdout","logger":"task"}
{"timestamp":"2025-09-01T20:40:25.876324Z","level":"info","event":"\talphaTmin            1e-10 \\","chan":"stdout","logger":"task"}
{"timestamp":"2025-09-01T20:40:25.876749Z","level":"info","event":"\tupdateTestStepSize   yes \\","chan":"stdout","logger":"task"}
{"timestamp":"2025-09-01T20:40:25.877897Z","level":"info","event":"\talphaTreduceFactor   0.1 \\","chan":"stdout","logger":"task"}
{"timestamp":"2025-09-01T20:40:25.879144Z","level":"info","event":"\talphaTincreaseFactor 3 \\","chan":"stdout","logger":"task"}
{"timestamp":"2025-09-01T20:40:25.879602Z","level":"info","event":"\tnAlphaAdjustMax      6 \\","chan":"stdout","logger":"task"}
{"timestamp":"2025-09-01T20:40:25.880563Z","level":"info","event":"\twolfeEnergy          0.0001 \\","chan":"stdout","logger":"task"}
{"timestamp":"2025-09-01T20:40:25.881034Z","level":"info","event":"\twolfeGradient        0.9 \\","chan":"stdout","logger":"task"}
{"timestamp":"2025-09-01T20:40:25.882719Z","level":"info","event":"\tabortOnFailedStep    no \\","chan":"stdout","logger":"task"}
{"timestamp":"2025-09-01T20:40:25.883410Z","level":"info","event":"\tfdTest               no","chan":"stdout","logger":"task"}
{"timestamp":"2025-09-01T20:40:25.883799Z","level":"info","event":"fluid-solvent H2O 55.338 ScalarEOS \\","chan":"stdout","logger":"task"}
{"timestamp":"2025-09-01T20:40:25.884277Z","level":"info","event":"\tepsBulk 78.4 \\","chan":"stdout","logger":"task"}
{"timestamp":"2025-09-01T20:40:25.884706Z","level":"info","event":"\tpMol 0.92466 \\","chan":"stdout","logger":"task"}
{"timestamp":"2025-09-01T20:40:25.885151Z","level":"info","event":"\tepsInf 1.77 \\","chan":"stdout","logger":"task"}
{"timestamp":"2025-09-01T20:40:25.885549Z","level":"info","event":"\tPvap 1.06736e-10 \\","chan":"stdout","logger":"task"}
{"timestamp":"2025-09-01T20:40:25.885985Z","level":"info","event":"\tsigmaBulk 4.62e-05 \\","chan":"stdout","logger":"task"}
{"timestamp":"2025-09-01T20:40:25.886382Z","level":"info","event":"\tRvdw 2.61727 \\","chan":"stdout","logger":"task"}
{"timestamp":"2025-09-01T20:40:25.887085Z","level":"info","event":"\tRes 1.42 \\","chan":"stdout","logger":"task"}
{"timestamp":"2025-09-01T20:40:25.887578Z","level":"info","event":"\ttauNuc 343133 \\","chan":"stdout","logger":"task"}
{"timestamp":"2025-09-01T20:40:25.888021Z","level":"info","event":"\tpoleEl 15 7 1","chan":"stdout","logger":"task"}
{"timestamp":"2025-09-01T20:40:25.888460Z","level":"info","event":"forces-output-coords Positions","chan":"stdout","logger":"task"}
{"timestamp":"2025-09-01T20:40:25.888910Z","level":"info","event":"initial-state $VAR","chan":"stdout","logger":"task"}
{"timestamp":"2025-09-01T20:40:25.889350Z","level":"info","event":"ion V   0.000000000000000   9.808292000000002  18.773380000000000 1","chan":"stdout","logger":"task"}
{"timestamp":"2025-09-01T20:40:25.889810Z","level":"info","event":"ion V   0.000000000000000   0.000000000000000  24.383316000000001 1","chan":"stdout","logger":"task"}
{"timestamp":"2025-09-01T20:40:25.890093Z","level":"info","event":"ion V   0.000000000000000   9.808292000000002  24.383316000000001 1","chan":"stdout","logger":"task"}
{"timestamp":"2025-09-01T20:40:25.890480Z","level":"info","event":"ion V   0.000000000000000   0.000000000000000  29.993252999999999 1","chan":"stdout","logger":"task"}
{"timestamp":"2025-09-01T20:40:25.890887Z","level":"info","event":"ion V   0.000000000000000   9.808292000000002  29.993252999999996 1","chan":"stdout","logger":"task"}
{"timestamp":"2025-09-01T20:40:25.891245Z","level":"info","event":"ion V   0.000000000000000   0.000000000000000  35.603189000000000 1","chan":"stdout","logger":"task"}
{"timestamp":"2025-09-01T20:40:25.891600Z","level":"info","event":"ion V   0.000000000000000   9.808292000000002  35.603189000000000 1","chan":"stdout","logger":"task"}
{"timestamp":"2025-09-01T20:40:25.891873Z","level":"info","event":"ion V   0.000000000000000   0.000000000000000  41.213126000000003 1","chan":"stdout","logger":"task"}
{"timestamp":"2025-09-01T20:40:25.892182Z","level":"info","event":"ion O   3.238900000000000  11.598168000000001  13.163439000000000 1","chan":"stdout","logger":"task"}
{"timestamp":"2025-09-01T20:40:25.892469Z","level":"info","event":"ion O   3.238900000000000  17.826708000000000  13.163439000000000 1","chan":"stdout","logger":"task"}
{"timestamp":"2025-09-01T20:40:25.892782Z","level":"info","event":"ion O   3.238900000000000  11.598168000000001  18.773376000000003 1","chan":"stdout","logger":"task"}
{"timestamp":"2025-09-01T20:40:25.893295Z","level":"info","event":"ion O   3.238900000000000  17.826708000000000  18.773376000000003 1","chan":"stdout","logger":"task"}
{"timestamp":"2025-09-01T20:40:25.899475Z","level":"info","event":"ion O   1.619447000000000   8.018416000000002  21.578350000000000 1","chan":"stdout","logger":"task"}
{"timestamp":"2025-09-01T20:40:25.900028Z","level":"info","event":"ion O   1.619447000000000   1.789876000000000  21.578350000000000 1","chan":"stdout","logger":"task"}
{"timestamp":"2025-09-01T20:40:25.900388Z","level":"info","event":"ion O   3.238900000000000  11.598168000000001  24.383312999999998 1","chan":"stdout","logger":"task"}
{"timestamp":"2025-09-01T20:40:25.900738Z","level":"info","event":"ion O   3.238900000000000  17.826708000000000  24.383313000000008 1","chan":"stdout","logger":"task"}
{"timestamp":"2025-09-01T20:40:25.901079Z","level":"info","event":"ion O   1.619447000000000   8.018416000000002  27.188287000000003 1","chan":"stdout","logger":"task"}
{"timestamp":"2025-09-01T20:40:25.902621Z","level":"info","event":"ion O   1.619447000000000   1.789876000000000  27.188286999999999 1","chan":"stdout","logger":"task"}
{"timestamp":"2025-09-01T20:40:25.902975Z","level":"info","event":"ion O   3.238900000000000  11.598168000000001  29.993249000000002 1","chan":"stdout","logger":"task"}
{"timestamp":"2025-09-01T20:40:25.903552Z","level":"info","event":"ion O   3.238900000000000  17.826708000000000  29.993248999999999 1","chan":"stdout","logger":"task"}
{"timestamp":"2025-09-01T20:40:25.903981Z","level":"info","event":"ion O   1.619447000000000   8.018416000000002  32.798223000000007 1","chan":"stdout","logger":"task"}
{"timestamp":"2025-09-01T20:40:25.904694Z","level":"info","event":"ion O   1.619447000000000   1.789876000000000  32.798223000000000 1","chan":"stdout","logger":"task"}
{"timestamp":"2025-09-01T20:40:25.905038Z","level":"info","event":"ion-species GBRV/$ID_pbe.uspp","chan":"stdout","logger":"task"}
{"timestamp":"2025-09-01T20:40:25.905522Z","level":"info","event":"ion-width Ecut","chan":"stdout","logger":"task"}
{"timestamp":"2025-09-01T20:40:25.905858Z","level":"info","event":"ionic-minimize  \\","chan":"stdout","logger":"task"}
{"timestamp":"2025-09-01T20:40:25.906174Z","level":"info","event":"\tdirUpdateScheme      L-BFGS \\","chan":"stdout","logger":"task"}
{"timestamp":"2025-09-01T20:40:25.906768Z","level":"info","event":"\tlinminMethod         DirUpdateRecommended \\","chan":"stdout","logger":"task"}
{"timestamp":"2025-09-01T20:40:25.907113Z","level":"info","event":"\tnIterations          0 \\","chan":"stdout","logger":"task"}
{"timestamp":"2025-09-01T20:40:25.907460Z","level":"info","event":"\thistory              15 \\","chan":"stdout","logger":"task"}
{"timestamp":"2025-09-01T20:40:25.907848Z","level":"info","event":"\tknormThreshold       0.0001 \\","chan":"stdout","logger":"task"}
{"timestamp":"2025-09-01T20:40:25.908388Z","level":"info","event":"\tmaxThreshold         no \\","chan":"stdout","logger":"task"}
{"timestamp":"2025-09-01T20:40:25.908791Z","level":"info","event":"\tenergyDiffThreshold  1e-06 \\","chan":"stdout","logger":"task"}
{"timestamp":"2025-09-01T20:40:25.909304Z","level":"info","event":"\tnEnergyDiff          2 \\","chan":"stdout","logger":"task"}
{"timestamp":"2025-09-01T20:40:25.909631Z","level":"info","event":"\tconvergeAll          no \\","chan":"stdout","logger":"task"}
{"timestamp":"2025-09-01T20:40:25.909939Z","level":"info","event":"\talphaTstart          1 \\","chan":"stdout","logger":"task"}
{"timestamp":"2025-09-01T20:40:25.910205Z","level":"info","event":"\talphaTmin            1e-10 \\","chan":"stdout","logger":"task"}
{"timestamp":"2025-09-01T20:40:25.910606Z","level":"info","event":"\tupdateTestStepSize   yes \\","chan":"stdout","logger":"task"}
{"timestamp":"2025-09-01T20:40:25.910988Z","level":"info","event":"\talphaTreduceFactor   0.1 \\","chan":"stdout","logger":"task"}
{"timestamp":"2025-09-01T20:40:25.911351Z","level":"info","event":"\talphaTincreaseFactor 3 \\","chan":"stdout","logger":"task"}
{"timestamp":"2025-09-01T20:40:25.912800Z","level":"info","event":"\tnAlphaAdjustMax      3 \\","chan":"stdout","logger":"task"}
{"timestamp":"2025-09-01T20:40:25.913350Z","level":"info","event":"\twolfeEnergy          0.0001 \\","chan":"stdout","logger":"task"}
{"timestamp":"2025-09-01T20:40:25.913932Z","level":"info","event":"\twolfeGradient        0.9 \\","chan":"stdout","logger":"task"}
{"timestamp":"2025-09-01T20:40:25.914579Z","level":"info","event":"\tabortOnFailedStep    no \\","chan":"stdout","logger":"task"}
{"timestamp":"2025-09-01T20:40:25.914899Z","level":"info","event":"\tfdTest               no","chan":"stdout","logger":"task"}
{"timestamp":"2025-09-01T20:40:25.915253Z","level":"info","event":"kpoint   0.500000000000   0.500000000000   0.500000000000  1.00000000000000","chan":"stdout","logger":"task"}
{"timestamp":"2025-09-01T20:40:25.915596Z","level":"info","event":"kpoint-folding 1 1 1","chan":"stdout","logger":"task"}
{"timestamp":"2025-09-01T20:40:25.916004Z","level":"info","event":"latt-move-scale 1 1 1","chan":"stdout","logger":"task"}
{"timestamp":"2025-09-01T20:40:25.916321Z","level":"info","event":"latt-scale 1 1 1","chan":"stdout","logger":"task"}
{"timestamp":"2025-09-01T20:40:25.916653Z","level":"info","event":"lattice  \\","chan":"stdout","logger":"task"}
{"timestamp":"2025-09-01T20:40:25.917052Z","level":"info","event":"\t   4.858347000000000    0.000000000000000    0.000000000000000  \\","chan":"stdout","logger":"task"}
{"timestamp":"2025-09-01T20:40:25.917362Z","level":"info","event":"\t   0.000000000000000   19.616584000000000    0.000000000000000  \\","chan":"stdout","logger":"task"}
{"timestamp":"2025-09-01T20:40:25.917837Z","level":"info","event":"\t  -8.414906000000000   -5.609937000000000   61.709302000000001","chan":"stdout","logger":"task"}
{"timestamp":"2025-09-01T20:40:25.918153Z","level":"info","event":"lattice-minimize  \\","chan":"stdout","logger":"task"}
{"timestamp":"2025-09-01T20:40:25.918516Z","level":"info","event":"\tdirUpdateScheme      L-BFGS \\","chan":"stdout","logger":"task"}
{"timestamp":"2025-09-01T20:40:25.918885Z","level":"info","event":"\tlinminMethod         DirUpdateRecommended \\","chan":"stdout","logger":"task"}
{"timestamp":"2025-09-01T20:40:25.919490Z","level":"info","event":"\tnIterations          0 \\","chan":"stdout","logger":"task"}
{"timestamp":"2025-09-01T20:40:25.920021Z","level":"info","event":"\thistory              15 \\","chan":"stdout","logger":"task"}
{"timestamp":"2025-09-01T20:40:25.920342Z","level":"info","event":"\tknormThreshold       0 \\","chan":"stdout","logger":"task"}
{"timestamp":"2025-09-01T20:40:25.920873Z","level":"info","event":"\tmaxThreshold         no \\","chan":"stdout","logger":"task"}
{"timestamp":"2025-09-01T20:40:25.921411Z","level":"info","event":"\tenergyDiffThreshold  1e-06 \\","chan":"stdout","logger":"task"}
{"timestamp":"2025-09-01T20:40:25.921984Z","level":"info","event":"\tnEnergyDiff          2 \\","chan":"stdout","logger":"task"}
{"timestamp":"2025-09-01T20:40:25.922322Z","level":"info","event":"\tconvergeAll          no \\","chan":"stdout","logger":"task"}
{"timestamp":"2025-09-01T20:40:25.922726Z","level":"info","event":"\talphaTstart          1 \\","chan":"stdout","logger":"task"}
{"timestamp":"2025-09-01T20:40:25.923106Z","level":"info","event":"\talphaTmin            1e-10 \\","chan":"stdout","logger":"task"}
{"timestamp":"2025-09-01T20:40:25.923713Z","level":"info","event":"\tupdateTestStepSize   yes \\","chan":"stdout","logger":"task"}
{"timestamp":"2025-09-01T20:40:25.924423Z","level":"info","event":"\talphaTreduceFactor   0.1 \\","chan":"stdout","logger":"task"}
{"timestamp":"2025-09-01T20:40:25.924838Z","level":"info","event":"\talphaTincreaseFactor 3 \\","chan":"stdout","logger":"task"}
{"timestamp":"2025-09-01T20:40:25.925222Z","level":"info","event":"\tnAlphaAdjustMax      3 \\","chan":"stdout","logger":"task"}
{"timestamp":"2025-09-01T20:40:25.925540Z","level":"info","event":"\twolfeEnergy          0.0001 \\","chan":"stdout","logger":"task"}
{"timestamp":"2025-09-01T20:40:25.925876Z","level":"info","event":"\twolfeGradient        0.9 \\","chan":"stdout","logger":"task"}
{"timestamp":"2025-09-01T20:40:25.926207Z","level":"info","event":"\tabortOnFailedStep    no \\","chan":"stdout","logger":"task"}
{"timestamp":"2025-09-01T20:40:25.926595Z","level":"info","event":"\tfdTest               no","chan":"stdout","logger":"task"}
{"timestamp":"2025-09-01T20:40:25.926965Z","level":"info","event":"lcao-params 15 5e-05 0.00734","chan":"stdout","logger":"task"}
{"timestamp":"2025-09-01T20:40:25.927411Z","level":"info","event":"pcm-variant CANDLE","chan":"stdout","logger":"task"}
{"timestamp":"2025-09-01T20:40:25.927763Z","level":"info","event":"perturb-minimize  \\","chan":"stdout","logger":"task"}
{"timestamp":"2025-09-01T20:40:25.928056Z","level":"info","event":"\tnIterations            0 \\","chan":"stdout","logger":"task"}
{"timestamp":"2025-09-01T20:40:25.929333Z","level":"info","event":"\talgorithm              MINRES \\","chan":"stdout","logger":"task"}
{"timestamp":"2025-09-01T20:40:25.929738Z","level":"info","event":"\tresidualTol            0.0001 \\","chan":"stdout","logger":"task"}
{"timestamp":"2025-09-01T20:40:25.930710Z","level":"info","event":"\tresidualDiffThreshold  0.0001 \\","chan":"stdout","logger":"task"}
{"timestamp":"2025-09-01T20:40:25.931058Z","level":"info","event":"\tCGBypass               no \\","chan":"stdout","logger":"task"}
{"timestamp":"2025-09-01T20:40:25.932265Z","level":"info","event":"\trecomputeResidual      no","chan":"stdout","logger":"task"}
{"timestamp":"2025-09-01T20:40:25.932628Z","level":"info","event":"spintype no-spin","chan":"stdout","logger":"task"}
{"timestamp":"2025-09-01T20:40:25.933195Z","level":"info","event":"subspace-rotation-factor 1 yes","chan":"stdout","logger":"task"}
{"timestamp":"2025-09-01T20:40:25.934446Z","level":"info","event":"symmetries automatic","chan":"stdout","logger":"task"}
{"timestamp":"2025-09-01T20:40:25.934836Z","level":"info","event":"symmetry-threshold 0.0001","chan":"stdout","logger":"task"}
{"timestamp":"2025-09-01T20:40:25.936300Z","level":"info","event":"","chan":"stdout","logger":"task"}
{"timestamp":"2025-09-01T20:40:25.936657Z","level":"info","event":"","chan":"stdout","logger":"task"}
{"timestamp":"2025-09-01T20:40:25.937647Z","level":"info","event":"","chan":"stdout","logger":"task"}
{"timestamp":"2025-09-01T20:40:25.938013Z","level":"info","event":"---------- Setting up symmetries ----------","chan":"stdout","logger":"task"}
{"timestamp":"2025-09-01T20:40:25.938311Z","level":"info","event":"","chan":"stdout","logger":"task"}
{"timestamp":"2025-09-01T20:40:25.938703Z","level":"info","event":"Non-trivial transmission matrix:","chan":"stdout","logger":"task"}
{"timestamp":"2025-09-01T20:40:25.946137Z","level":"info","event":"[   1   0   5  ]","chan":"stdout","logger":"task"}
{"timestamp":"2025-09-01T20:40:25.947022Z","level":"info","event":"[   0   1   0  ]","chan":"stdout","logger":"task"}
{"timestamp":"2025-09-01T20:40:25.947381Z","level":"info","event":"[   0   0   1  ]","chan":"stdout","logger":"task"}
{"timestamp":"2025-09-01T20:40:25.948089Z","level":"info","event":"with reduced lattice vectors:","chan":"stdout","logger":"task"}
{"timestamp":"2025-09-01T20:40:25.948568Z","level":"info","event":"[      4.858347      0.000000     24.291735  ]","chan":"stdout","logger":"task"}
{"timestamp":"2025-09-01T20:40:25.948877Z","level":"info","event":"[      0.000000     19.616584      0.000000  ]","chan":"stdout","logger":"task"}
{"timestamp":"2025-09-01T20:40:25.949254Z","level":"info","event":"[     -8.414906     -5.609937     19.634772  ]","chan":"stdout","logger":"task"}
{"timestamp":"2025-09-01T20:40:25.949629Z","level":"info","event":"","chan":"stdout","logger":"task"}
{"timestamp":"2025-09-01T20:40:25.949908Z","level":"info","event":"Found 4 point-group symmetries of the bravais lattice","chan":"stdout","logger":"task"}
{"timestamp":"2025-09-01T20:40:25.950200Z","level":"info","event":"Found 2 space-group symmetries with basis","chan":"stdout","logger":"task"}
{"timestamp":"2025-09-01T20:40:25.950525Z","level":"info","event":"Applied RMS atom displacement 3.8122e-07 bohrs to make symmetries exact.","chan":"stdout","logger":"task"}
{"timestamp":"2025-09-01T20:40:26.784934Z","level":"info","event":"","chan":"stdout","logger":"task"}
{"timestamp":"2025-09-01T20:40:26.785435Z","level":"info","event":"---------- Initializing the Grid ----------","chan":"stdout","logger":"task"}
{"timestamp":"2025-09-01T20:40:26.785813Z","level":"info","event":"R =","chan":"stdout","logger":"task"}
{"timestamp":"2025-09-01T20:40:26.786167Z","level":"info","event":"[      4.85835            0            0  ]","chan":"stdout","logger":"task"}
{"timestamp":"2025-09-01T20:40:26.786649Z","level":"info","event":"[            0      19.6166            0  ]","chan":"stdout","logger":"task"}
{"timestamp":"2025-09-01T20:40:26.787018Z","level":"info","event":"[     -8.41491     -5.60994      61.7093  ]","chan":"stdout","logger":"task"}
{"timestamp":"2025-09-01T20:40:26.788146Z","level":"info","event":"unit cell volume = 5881.15","chan":"stdout","logger":"task"}
{"timestamp":"2025-09-01T20:40:26.788511Z","level":"info","event":"G =","chan":"stdout","logger":"task"}
{"timestamp":"2025-09-01T20:40:26.788951Z","level":"info","event":"[    1.29328         -0          0  ]","chan":"stdout","logger":"task"}
{"timestamp":"2025-09-01T20:40:26.790467Z","level":"info","event":"[         -0     0.3203          0  ]","chan":"stdout","logger":"task"}
{"timestamp":"2025-09-01T20:40:26.790836Z","level":"info","event":"[   0.176356  0.0291182   0.101819  ]","chan":"stdout","logger":"task"}
{"timestamp":"2025-09-01T20:40:26.791178Z","level":"info","event":"Minimum fftbox size, Smin = [  28  60  176  ]","chan":"stdout","logger":"task"}
{"timestamp":"2025-09-01T20:40:26.791874Z","level":"info","event":"WARNING: Symmetries require anisotropic S to include FFT-unsupported factors. Falling back to isotropic solution.","chan":"stdout","logger":"task"}
{"timestamp":"2025-09-01T20:40:26.792259Z","level":"info","event":"Chosen fftbox size, S = [  180  180  180  ]","chan":"stdout","logger":"task"}
{"timestamp":"2025-09-01T20:40:26.792557Z","level":"info","event":"","chan":"stdout","logger":"task"}
{"timestamp":"2025-09-01T20:40:26.792825Z","level":"info","event":"---------- Exchange Correlation functional ----------","chan":"stdout","logger":"task"}
{"timestamp":"2025-09-01T20:40:26.793249Z","level":"info","event":"Initalized PBE GGA exchange.","chan":"stdout","logger":"task"}
{"timestamp":"2025-09-01T20:40:26.793704Z","level":"info","event":"Initalized PBE GGA correlation.","chan":"stdout","logger":"task"}
{"timestamp":"2025-09-01T20:40:26.794026Z","level":"info","event":"","chan":"stdout","logger":"task"}
{"timestamp":"2025-09-01T20:40:26.794463Z","level":"info","event":"---------- Setting up pseudopotentials ----------","chan":"stdout","logger":"task"}
{"timestamp":"2025-09-01T20:40:26.794742Z","level":"info","event":"Width of ionic core gaussian charges (only for fluid interactions / plotting) set to 0.561985","chan":"stdout","logger":"task"}
{"timestamp":"2025-09-01T20:40:26.795062Z","level":"info","event":"","chan":"stdout","logger":"task"}
{"timestamp":"2025-09-01T20:40:26.796386Z","level":"info","event":"Reading pseudopotential file '/opt/jdftx-master/build/pseudopotentials/GBRV/v_pbe.uspp':","chan":"stdout","logger":"task"}
{"timestamp":"2025-09-01T20:40:26.796901Z","level":"info","event":"  Title: V.  Created by USPP 7.3.6 on 31-3-15","chan":"stdout","logger":"task"}
{"timestamp":"2025-09-01T20:40:26.798742Z","level":"info","event":"  Reference state energy: -72.228583.  13 valence electrons in orbitals:","chan":"stdout","logger":"task"}
{"timestamp":"2025-09-01T20:40:26.799069Z","level":"info","event":"    |300>  occupation: 2  eigenvalue: -2.581040","chan":"stdout","logger":"task"}
{"timestamp":"2025-09-01T20:40:26.800403Z","level":"info","event":"    |310>  occupation: 6  eigenvalue: -1.618497","chan":"stdout","logger":"task"}
{"timestamp":"2025-09-01T20:40:26.800764Z","level":"info","event":"    |400>  occupation: 2  eigenvalue: -0.172800","chan":"stdout","logger":"task"}
{"timestamp":"2025-09-01T20:40:26.801041Z","level":"info","event":"    |320>  occupation: 3  eigenvalue: -0.189802","chan":"stdout","logger":"task"}
{"timestamp":"2025-09-01T20:40:26.801356Z","level":"info","event":"  lMax: 2  lLocal: 3  QijEcut: 6","chan":"stdout","logger":"task"}
{"timestamp":"2025-09-01T20:40:26.801605Z","level":"info","event":"  6 projectors sampled on a log grid with 593 points:","chan":"stdout","logger":"task"}
{"timestamp":"2025-09-01T20:40:26.801855Z","level":"info","event":"    l: 0  eig: -2.581041  rCut: 1.5","chan":"stdout","logger":"task"}
{"timestamp":"2025-09-01T20:40:26.802122Z","level":"info","event":"    l: 0  eig: -0.172801  rCut: 1.5","chan":"stdout","logger":"task"}
{"timestamp":"2025-09-01T20:40:26.802388Z","level":"info","event":"    l: 1  eig: -1.618497  rCut: 1.6","chan":"stdout","logger":"task"}
{"timestamp":"2025-09-01T20:40:26.802676Z","level":"info","event":"    l: 1  eig: 0.150000  rCut: 1.6","chan":"stdout","logger":"task"}
{"timestamp":"2025-09-01T20:40:26.803084Z","level":"info","event":"    l: 2  eig: -0.189802  rCut: 1.7","chan":"stdout","logger":"task"}
{"timestamp":"2025-09-01T20:40:26.803878Z","level":"info","event":"    l: 2  eig: 0.150000  rCut: 1.7","chan":"stdout","logger":"task"}
{"timestamp":"2025-09-01T20:40:26.804277Z","level":"info","event":"  Partial core density with radius 0.8","chan":"stdout","logger":"task"}
{"timestamp":"2025-09-01T20:40:26.804610Z","level":"info","event":"  Transforming core density to a uniform radial grid of dG=0.02 with 6819 points.","chan":"stdout","logger":"task"}
{"timestamp":"2025-09-01T20:40:26.804952Z","level":"info","event":"  Transforming local potential to a uniform radial grid of dG=0.02 with 6819 points.","chan":"stdout","logger":"task"}
{"timestamp":"2025-09-01T20:40:26.805280Z","level":"info","event":"  Transforming nonlocal projectors to a uniform radial grid of dG=0.02 with 307 points.","chan":"stdout","logger":"task"}
{"timestamp":"2025-09-01T20:40:26.806180Z","level":"info","event":"  Transforming density augmentations to a uniform radial grid of dG=0.02 with 6819 points.","chan":"stdout","logger":"task"}
{"timestamp":"2025-09-01T20:40:26.806595Z","level":"info","event":"  Transforming atomic orbitals to a uniform radial grid of dG=0.02 with 307 points.","chan":"stdout","logger":"task"}
{"timestamp":"2025-09-01T20:40:27.372486Z","level":"info","event":"  Core radius for overlap checks: 1.80 bohrs.","chan":"stdout","logger":"task"}
{"timestamp":"2025-09-01T20:40:27.373242Z","level":"info","event":"","chan":"stdout","logger":"task"}
{"timestamp":"2025-09-01T20:40:27.373683Z","level":"info","event":"Reading pseudopotential file '/opt/jdftx-master/build/pseudopotentials/GBRV/o_pbe.uspp':","chan":"stdout","logger":"task"}
{"timestamp":"2025-09-01T20:40:27.374082Z","level":"info","event":"  Title: O.  Created by USPP 7.3.6 on 3-2-2014","chan":"stdout","logger":"task"}
{"timestamp":"2025-09-01T20:40:27.374427Z","level":"info","event":"  Reference state energy: -15.894388.  6 valence electrons in orbitals:","chan":"stdout","logger":"task"}
{"timestamp":"2025-09-01T20:40:27.375367Z","level":"info","event":"    |200>  occupation: 2  eigenvalue: -0.878823","chan":"stdout","logger":"task"}
{"timestamp":"2025-09-01T20:40:27.375682Z","level":"info","event":"    |210>  occupation: 4  eigenvalue: -0.332131","chan":"stdout","logger":"task"}
{"timestamp":"2025-09-01T20:40:27.376039Z","level":"info","event":"  lMax: 2  lLocal: 2  QijEcut: 6","chan":"stdout","logger":"task"}
{"timestamp":"2025-09-01T20:40:27.377219Z","level":"info","event":"  5 projectors sampled on a log grid with 511 points:","chan":"stdout","logger":"task"}
{"timestamp":"2025-09-01T20:40:27.377525Z","level":"info","event":"    l: 0  eig: -0.878823  rCut: 1.25","chan":"stdout","logger":"task"}
{"timestamp":"2025-09-01T20:40:27.377813Z","level":"info","event":"    l: 0  eig: 0.000000  rCut: 1.25","chan":"stdout","logger":"task"}
{"timestamp":"2025-09-01T20:40:27.378791Z","level":"info","event":"    l: 1  eig: -0.332132  rCut: 1.25","chan":"stdout","logger":"task"}
{"timestamp":"2025-09-01T20:40:27.379096Z","level":"info","event":"    l: 1  eig: 0.000000  rCut: 1.25","chan":"stdout","logger":"task"}
{"timestamp":"2025-09-01T20:40:27.379564Z","level":"info","event":"    l: 2  eig: 1.000000  rCut: 1.25","chan":"stdout","logger":"task"}
{"timestamp":"2025-09-01T20:40:27.379912Z","level":"info","event":"  Partial core density with radius 0.7","chan":"stdout","logger":"task"}
{"timestamp":"2025-09-01T20:40:27.380227Z","level":"info","event":"  Transforming core density to a uniform radial grid of dG=0.02 with 6819 points.","chan":"stdout","logger":"task"}
{"timestamp":"2025-09-01T20:40:27.380591Z","level":"info","event":"  Transforming local potential to a uniform radial grid of dG=0.02 with 6819 points.","chan":"stdout","logger":"task"}
{"timestamp":"2025-09-01T20:40:27.380858Z","level":"info","event":"  Transforming nonlocal projectors to a uniform radial grid of dG=0.02 with 307 points.","chan":"stdout","logger":"task"}
{"timestamp":"2025-09-01T20:40:27.381110Z","level":"info","event":"  Transforming density augmentations to a uniform radial grid of dG=0.02 with 6819 points.","chan":"stdout","logger":"task"}
{"timestamp":"2025-09-01T20:40:27.381365Z","level":"info","event":"  Transforming atomic orbitals to a uniform radial grid of dG=0.02 with 307 points.","chan":"stdout","logger":"task"}
{"timestamp":"2025-09-01T20:40:29.981122Z","level":"info","event":"  Core radius for overlap checks: 1.25 bohrs.","chan":"stdout","logger":"task"}
{"timestamp":"2025-09-01T20:40:29.981530Z","level":"info","event":"","chan":"stdout","logger":"task"}
{"timestamp":"2025-09-01T20:40:29.981901Z","level":"info","event":"Initialized 2 species with 22 total atoms.","chan":"stdout","logger":"task"}
{"timestamp":"2025-09-01T20:40:29.982300Z","level":"info","event":"","chan":"stdout","logger":"task"}
{"timestamp":"2025-09-01T20:40:29.982669Z","level":"info","event":"Folded 1 k-points by 1x1x1 to 1 k-points.","chan":"stdout","logger":"task"}
{"timestamp":"2025-09-01T20:40:29.982965Z","level":"info","event":"","chan":"stdout","logger":"task"}
{"timestamp":"2025-09-01T20:40:29.983340Z","level":"info","event":"---------- Setting up k-points, bands, fillings ----------","chan":"stdout","logger":"task"}
{"timestamp":"2025-09-01T20:40:29.983653Z","level":"info","event":"","chan":"stdout","logger":"task"}
{"timestamp":"2025-09-01T20:40:29.984023Z","level":"info","event":"WARNING: k-mesh symmetries are a subgroup of size 1","chan":"stdout","logger":"task"}
{"timestamp":"2025-09-01T20:40:29.984774Z","level":"info","event":"The effectively sampled k-mesh is a superset of the specified one,","chan":"stdout","logger":"task"}
{"timestamp":"2025-09-01T20:40:29.985111Z","level":"info","event":"and the answers need not match those with symmetries turned off.","chan":"stdout","logger":"task"}
{"timestamp":"2025-09-01T20:40:29.985365Z","level":"info","event":"No reducable k-points.","chan":"stdout","logger":"task"}
{"timestamp":"2025-09-01T20:40:29.985770Z","level":"info","event":"Computing the number of bands and number of electrons","chan":"stdout","logger":"task"}
{"timestamp":"2025-09-01T20:40:29.986079Z","level":"info","event":"Calculating initial fillings.","chan":"stdout","logger":"task"}
{"timestamp":"2025-09-01T20:40:29.986416Z","level":"info","event":"nElectrons: 187.900000   nBands: 136   nStates: 1","chan":"stdout","logger":"task"}
{"timestamp":"2025-09-01T20:40:29.986803Z","level":"info","event":"","chan":"stdout","logger":"task"}
{"timestamp":"2025-09-01T20:40:29.987097Z","level":"info","event":"----- Setting up reduced wavefunction bases (one per k-point) -----","chan":"stdout","logger":"task"}
{"timestamp":"2025-09-01T20:40:29.987384Z","level":"info","event":"average nbasis = 8890.000 , ideal nbasis = 8882.936","chan":"stdout","logger":"task"}
{"timestamp":"2025-09-01T20:40:40.035491Z","level":"info","event":"","chan":"stdout","logger":"task"}
{"timestamp":"2025-09-01T20:40:40.035960Z","level":"info","event":"Initializing DFT-D2 calculator for fluid / solvation:","chan":"stdout","logger":"task"}
{"timestamp":"2025-09-01T20:40:40.037403Z","level":"info","event":"\t V:  C6:  187.33 Eh-a0^6  R0: 2.952 a0","chan":"stdout","logger":"task"}
{"timestamp":"2025-09-01T20:40:40.038368Z","level":"info","event":"\t O:  C6:   12.14 Eh-a0^6  R0: 2.536 a0","chan":"stdout","logger":"task"}
{"timestamp":"2025-09-01T20:40:40.039076Z","level":"info","event":"","chan":"stdout","logger":"task"}
{"timestamp":"2025-09-01T20:40:40.039478Z","level":"info","event":"---------- Setting up ewald sum ----------","chan":"stdout","logger":"task"}
{"timestamp":"2025-09-01T20:40:40.040051Z","level":"info","event":"Optimum gaussian width for ewald sums = 4.322878 bohr.","chan":"stdout","logger":"task"}
{"timestamp":"2025-09-01T20:40:40.040386Z","level":"info","event":"Real space sum over 1323 unit cells with max indices [  10  4  3  ]","chan":"stdout","logger":"task"}
{"timestamp":"2025-09-01T20:40:40.040755Z","level":"info","event":"Reciprocal space sum over 9823 terms with max indices [  5  9  23  ]","chan":"stdout","logger":"task"}
{"timestamp":"2025-09-01T20:40:40.041469Z","level":"info","event":"","chan":"stdout","logger":"task"}
{"timestamp":"2025-09-01T20:40:40.041768Z","level":"info","event":"---------- Allocating electronic variables ----------","chan":"stdout","logger":"task"}
{"timestamp":"2025-09-01T20:45:30.594665Z","level":"info","event":"Initializing wave functions:  linear combination of atomic orbitals","chan":"stdout","logger":"task"}
{"timestamp":"2025-09-01T20:45:30.597824Z","level":"info","event":"V pseudo-atom occupations:   s ( 2 0 )  p ( 6 )  d ( 5 )","chan":"stdout","logger":"task"}
{"timestamp":"2025-09-01T20:45:30.598726Z","level":"info","event":"O pseudo-atom occupations:   s ( 2 )  p ( 4 )","chan":"stdout","logger":"task"}
{"timestamp":"2025-09-01T20:45:30.599595Z","level":"info","event":"\tFillingsUpdate:  mu: +1.499701608  nElectrons: 187.900000","chan":"stdout","logger":"task"}
{"timestamp":"2025-09-01T20:45:30.600029Z","level":"info","event":"LCAOMinimize: Iter:   0  F: -686.6771664769145218  |grad|_K:  7.605e-02  alpha:  1.000e+00","chan":"stdout","logger":"task"}
{"timestamp":"2025-09-01T20:47:57.294417Z","level":"info","event":"\tFillingsUpdate:  mu: +0.245322176  nElectrons: 187.900000","chan":"stdout","logger":"task"}
{"timestamp":"2025-09-01T20:47:57.295311Z","level":"info","event":"LCAOMinimize: Iter:   1  F: -769.4499695484495305  |grad|_K:  2.840e-02  alpha:  6.550e-01  linmin:  8.189e-02  cgtest: -2.051e+00  t[s]:    451.47","chan":"stdout","logger":"task"}
{"timestamp":"2025-09-01T20:47:57.295737Z","level":"info","event":"LCAOMinimize: \tBad step direction: g.d > 0.","chan":"stdout","logger":"task"}
{"timestamp":"2025-09-01T20:49:40.311114Z","level":"info","event":"LCAOMinimize: \tUndoing step.","chan":"stdout","logger":"task"}
{"timestamp":"2025-09-01T20:49:40.311660Z","level":"info","event":"LCAOMinimize: \tStep failed: resetting search direction.","chan":"stdout","logger":"task"}
{"timestamp":"2025-09-01T20:49:40.314971Z","level":"info","event":"\tFillingsUpdate:  mu: +0.245322176  nElectrons: 187.900000","chan":"stdout","logger":"task"}
{"timestamp":"2025-09-01T20:49:40.315336Z","level":"info","event":"LCAOMinimize: Iter:   2  F: -769.4499695484499853  |grad|_K:  2.840e-02  alpha:  0.000e+00","chan":"stdout","logger":"task"}
{"timestamp":"2025-09-01T20:52:00.630563Z","level":"info","event":"\tFillingsUpdate:  mu: +0.243119334  nElectrons: 187.900000","chan":"stdout","logger":"task"}
{"timestamp":"2025-09-01T20:52:00.631323Z","level":"info","event":"LCAOMinimize: Iter:   3  F: -770.1812298237688310  |grad|_K:  2.500e-02  alpha:  5.362e-02  linmin: -1.208e-01  cgtest:  1.051e+00  t[s]:    694.80","chan":"stdout","logger":"task"}
{"timestamp":"2025-09-01T20:52:00.631920Z","level":"info","event":"LCAOMinimize: Encountered beta<0, resetting CG.","chan":"stdout","logger":"task"}
{"timestamp":"2025-09-01T20:52:47.754766Z","level":"info","event":"LCAOMinimize: \tPredicted alpha/alphaT>3.000000, increasing alphaT to 1.608549e-01.","chan":"stdout","logger":"task"}
{"timestamp":"2025-09-01T20:53:34.682414Z","level":"info","event":"LCAOMinimize: \tWrong curvature in test step, increasing alphaT to 4.825648e-01.","chan":"stdout","logger":"task"}
{"timestamp":"2025-09-01T20:55:36.046168Z","level":"info","event":"\tFillingsUpdate:  mu: +0.199951424  nElectrons: 187.900000","chan":"stdout","logger":"task"}
{"timestamp":"2025-09-01T20:55:36.047583Z","level":"info","event":"LCAOMinimize: Iter:   4  F: -772.4388956970873323  |grad|_K:  3.084e-02  alpha: -4.102e-01  linmin: -7.015e-02  cgtest:  6.313e-01  t[s]:    910.22","chan":"stdout","logger":"task"}
{"timestamp":"2025-09-01T20:58:06.890556Z","level":"info","event":"\tFillingsUpdate:  mu: +0.005815530  nElectrons: 187.900000","chan":"stdout","logger":"task"}
{"timestamp":"2025-09-01T20:58:06.891389Z","level":"info","event":"LCAOMinimize: Iter:   5  F: -778.1119940532111059  |grad|_K:  4.805e-02  alpha:  1.037e-01  linmin: -1.343e-01  cgtest:  3.831e-01  t[s]:   1061.06","chan":"stdout","logger":"task"}
{"timestamp":"2025-09-01T21:00:41.662062Z","level":"info","event":"\tFillingsUpdate:  mu: -0.072586132  nElectrons: 187.900000","chan":"stdout","logger":"task"}
{"timestamp":"2025-09-01T21:00:41.663016Z","level":"info","event":"LCAOMinimize: Iter:   6  F: -782.5098547586627546  |grad|_K:  5.569e-02  alpha:  1.406e-02  linmin: -1.824e-01  cgtest:  7.238e-01  t[s]:   1215.83","chan":"stdout","logger":"task"}
{"timestamp":"2025-09-01T21:03:05.742340Z","level":"info","event":"\tFillingsUpdate:  mu: -0.004515646  nElectrons: 187.900000","chan":"stdout","logger":"task"}
{"timestamp":"2025-09-01T21:03:05.742895Z","level":"info","event":"LCAOMinimize: Iter:   7  F: -784.2931803429511319  |grad|_K:  7.058e-02  alpha:  1.032e-02  linmin:  2.847e-02  cgtest:  2.965e-01  t[s]:   1359.91","chan":"stdout","logger":"task"}
{"timestamp":"2025-09-01T21:05:29.269702Z","level":"info","event":"\tFillingsUpdate:  mu: +0.019226677  nElectrons: 187.900000","chan":"stdout","logger":"task"}
{"timestamp":"2025-09-01T21:05:29.270255Z","level":"info","event":"LCAOMinimize: Iter:   8  F: -784.2935884989019542  |grad|_K:  7.509e-02  alpha:  6.205e-04  linmin:  4.561e-03  cgtest:  9.995e-01  t[s]:   1503.44","chan":"stdout","logger":"task"}
{"timestamp":"2025-09-01T21:06:15.202341Z","level":"info","event":"LCAOMinimize: \tWrong curvature in test step, increasing alphaT to 1.861558e-03.","chan":"stdout","logger":"task"}
{"timestamp":"2025-09-01T21:08:00.380868Z","level":"info","event":"\tFillingsUpdate:  mu: +0.017951051  nElectrons: 187.900000","chan":"stdout","logger":"task"}
{"timestamp":"2025-09-01T21:08:00.381468Z","level":"info","event":"LCAOMinimize: Iter:   9  F: -784.3588778230783873  |grad|_K:  7.483e-02  alpha: -7.763e-02  linmin: -1.518e-01  cgtest:  9.914e-01  t[s]:   1654.55","chan":"stdout","logger":"task"}
{"timestamp":"2025-09-01T21:10:33.217385Z","level":"info","event":"LCAOMinimize: \tStep increased F by 7.475139e-01, reducing alpha to 2.590409e-02.","chan":"stdout","logger":"task"}
{"timestamp":"2025-09-01T21:12:16.136817Z","level":"info","event":"\tFillingsUpdate:  mu: -0.060914072  nElectrons: 187.900000","chan":"stdout","logger":"task"}
{"timestamp":"2025-09-01T21:12:16.137217Z","level":"info","event":"LCAOMinimize: Iter:  10  F: -786.3711142528698019  |grad|_K:  4.724e-02  alpha:  2.590e-02  linmin: -8.582e-02  cgtest:  2.106e-01  t[s]:   1910.31","chan":"stdout","logger":"task"}
{"timestamp":"2025-09-01T21:12:59.104552Z","level":"info","event":"LCAOMinimize: \tPredicted alpha/alphaT>3.000000, increasing alphaT to 7.771226e-02.","chan":"stdout","logger":"task"}
{"timestamp":"2025-09-01T21:15:24.375949Z","level":"info","event":"\tFillingsUpdate:  mu: +0.237906554  nElectrons: 187.900000","chan":"stdout","logger":"task"}
{"timestamp":"2025-09-01T21:15:24.376882Z","level":"info","event":"LCAOMinimize: Iter:  11  F: -787.8433550103602556  |grad|_K:  1.134e-01  alpha:  1.435e-01  linmin:  3.927e-02  cgtest:  1.575e-01  t[s]:   2098.55","chan":"stdout","logger":"task"}
{"timestamp":"2025-09-01T21:17:58.219930Z","level":"info","event":"\tFillingsUpdate:  mu: +0.198446657  nElectrons: 187.900000","chan":"stdout","logger":"task"}
{"timestamp":"2025-09-01T21:17:58.221041Z","level":"info","event":"LCAOMinimize: Iter:  12  F: -788.0997036283350781  |grad|_K:  1.156e-01  alpha:  3.632e-03  linmin: -1.906e-02  cgtest:  1.040e+00  t[s]:   2252.39","chan":"stdout","logger":"task"}
{"timestamp":"2025-09-01T21:17:58.221752Z","level":"info","event":"LCAOMinimize: Encountered beta<0, resetting CG.","chan":"stdout","logger":"task"}
{"timestamp":"2025-09-01T21:18:43.421367Z","level":"info","event":"LCAOMinimize: \tWrong curvature in test step, increasing alphaT to 1.089614e-02.","chan":"stdout","logger":"task"}
{"timestamp":"2025-09-01T21:20:27.227593Z","level":"info","event":"\tFillingsUpdate:  mu: +0.200132231  nElectrons: 187.900000","chan":"stdout","logger":"task"}
{"timestamp":"2025-09-01T21:20:27.228062Z","level":"info","event":"LCAOMinimize: Iter:  13  F: -789.0159023098030957  |grad|_K:  1.090e-01  alpha: -3.279e-01  linmin: -3.781e-01  cgtest:  9.369e-01  t[s]:   2401.40","chan":"stdout","logger":"task"}
{"timestamp":"2025-09-01T21:22:55.935108Z","level":"info","event":"LCAOMinimize: \tStep increased F by 3.700916e+01, reducing alpha to 3.494872e-02.","chan":"stdout","logger":"task"}
{"timestamp":"2025-09-01T21:24:43.002169Z","level":"info","event":"\tFillingsUpdate:  mu: -0.019066347  nElectrons: 187.900000","chan":"stdout","logger":"task"}
{"timestamp":"2025-09-01T21:24:43.002878Z","level":"info","event":"LCAOMinimize: Iter:  14  F: -793.0464906713093569  |grad|_K:  4.418e-02  alpha:  3.495e-02  linmin:  4.717e-02  cgtest: -5.360e-01  t[s]:   2657.17","chan":"stdout","logger":"task"}
{"timestamp":"2025-09-01T21:27:14.241953Z","level":"info","event":"\tFillingsUpdate:  mu: -0.026464781  nElectrons: 187.900000","chan":"stdout","logger":"task"}
{"timestamp":"2025-09-01T21:27:14.242446Z","level":"info","event":"LCAOMinimize: Iter:  15  F: -793.2938370579047387  |grad|_K:  4.142e-02  alpha:  1.626e-02  linmin:  1.089e-02  cgtest:  4.881e-01  t[s]:   2808.41","chan":"stdout","logger":"task"}
{"timestamp":"2025-09-01T21:27:17.914874Z","level":"info","event":"LCAOMinimize: None of the convergence criteria satisfied after 15 iterations.","chan":"stdout","logger":"task"}
{"timestamp":"2025-09-01T21:27:17.915354Z","level":"info","event":"----- createFluidSolver() ----- (Fluid-side solver setup)","chan":"stdout","logger":"task"}
{"timestamp":"2025-09-01T21:27:17.918319Z","level":"info","event":"   Initializing fluid molecule 'H2O'","chan":"stdout","logger":"task"}
{"timestamp":"2025-09-01T21:27:17.918861Z","level":"info","event":"     Initializing site 'O'","chan":"stdout","logger":"task"}
{"timestamp":"2025-09-01T21:27:17.919330Z","level":"info","event":"       Electron density: proportional to exp(-r/0.36935)*erfc((r-0.51523)/0.36823) with norm 6.826","chan":"stdout","logger":"task"}
{"timestamp":"2025-09-01T21:27:17.919668Z","level":"info","event":"       Charge density: gaussian nuclear width 0.478731 with net site charge 0.826","chan":"stdout","logger":"task"}
{"timestamp":"2025-09-01T21:27:17.920598Z","level":"info","event":"       Polarizability: cuspless exponential with width 0.32 and norm 3.73","chan":"stdout","logger":"task"}
{"timestamp":"2025-09-01T21:27:17.921100Z","level":"info","event":"       Hard sphere radius: 2.57003 bohrs","chan":"stdout","logger":"task"}
{"timestamp":"2025-09-01T21:27:17.921684Z","level":"info","event":"       Positions in reference frame:","chan":"stdout","logger":"task"}
{"timestamp":"2025-09-01T21:27:17.922120Z","level":"info","event":"         [ +0.000000 +0.000000 +0.000000 ]","chan":"stdout","logger":"task"}
{"timestamp":"2025-09-01T21:27:17.922547Z","level":"info","event":"     Initializing site 'H'","chan":"stdout","logger":"task"}
{"timestamp":"2025-09-01T21:27:17.922993Z","level":"info","event":"       Electron density: proportional to exp(-r/0.34641)*erfc((r-0)/0.390882) with norm 0.587","chan":"stdout","logger":"task"}
{"timestamp":"2025-09-01T21:27:17.923460Z","level":"info","event":"       Charge density: gaussian nuclear width 0.377945 with net site charge -0.413","chan":"stdout","logger":"task"}
{"timestamp":"2025-09-01T21:27:17.923917Z","level":"info","event":"       Polarizability: cuspless exponential with width 0.39 and norm 3.3","chan":"stdout","logger":"task"}
{"timestamp":"2025-09-01T21:27:17.924371Z","level":"info","event":"       Positions in reference frame:","chan":"stdout","logger":"task"}
{"timestamp":"2025-09-01T21:27:17.924787Z","level":"info","event":"         [ +0.000000 -1.441945 +1.122523 ]","chan":"stdout","logger":"task"}
{"timestamp":"2025-09-01T21:27:17.925542Z","level":"info","event":"         [ +0.000000 +1.441945 +1.122523 ]","chan":"stdout","logger":"task"}
{"timestamp":"2025-09-01T21:27:17.929573Z","level":"info","event":"     Net charge: 0   dipole magnitude: 0.927204","chan":"stdout","logger":"task"}
{"timestamp":"2025-09-01T21:27:17.930242Z","level":"info","event":"     Initializing spherical shell mfKernel with radius 2.61727 Bohr","chan":"stdout","logger":"task"}
{"timestamp":"2025-09-01T21:27:17.930681Z","level":"info","event":"     deltaS corrections:","chan":"stdout","logger":"task"}
{"timestamp":"2025-09-01T21:27:17.931138Z","level":"info","event":"       site 'O': -7.54299","chan":"stdout","logger":"task"}
{"timestamp":"2025-09-01T21:27:17.931618Z","level":"info","event":"       site 'H': -6.83917","chan":"stdout","logger":"task"}
{"timestamp":"2025-09-01T21:27:17.932021Z","level":"info","event":"   Initializing fluid molecule 'Na+'","chan":"stdout","logger":"task"}
{"timestamp":"2025-09-01T21:27:17.932483Z","level":"info","event":"     Initializing site 'Na'","chan":"stdout","logger":"task"}
{"timestamp":"2025-09-01T21:27:17.933040Z","level":"info","event":"       Electron density: proportional to exp(-r/0.19682)*erfc((r-0.71491)/0.41314) with norm 8.1383","chan":"stdout","logger":"task"}
{"timestamp":"2025-09-01T21:27:17.933528Z","level":"info","event":"       Charge density: gaussian nuclear width 0.365347 with net site charge -1","chan":"stdout","logger":"task"}
{"timestamp":"2025-09-01T21:27:17.933987Z","level":"info","event":"       Hard sphere radius: 1.86327 bohrs","chan":"stdout","logger":"task"}
{"timestamp":"2025-09-01T21:27:17.934536Z","level":"info","event":"       Positions in reference frame:","chan":"stdout","logger":"task"}
{"timestamp":"2025-09-01T21:27:17.934980Z","level":"info","event":"         [ +0.000000 +0.000000 +0.000000 ]","chan":"stdout","logger":"task"}
{"timestamp":"2025-09-01T21:27:17.935461Z","level":"info","event":"     Net charge: -1   dipole magnitude: 0","chan":"stdout","logger":"task"}
{"timestamp":"2025-09-01T21:27:17.936385Z","level":"info","event":"     Initializing gaussian mfKernel with width: 1.55004 Bohr","chan":"stdout","logger":"task"}
{"timestamp":"2025-09-01T21:27:17.937153Z","level":"info","event":"     deltaS corrections:","chan":"stdout","logger":"task"}
{"timestamp":"2025-09-01T21:27:17.937662Z","level":"info","event":"       site 'Na': -22.3555","chan":"stdout","logger":"task"}
{"timestamp":"2025-09-01T21:27:17.938046Z","level":"info","event":"   Initializing fluid molecule 'F-'","chan":"stdout","logger":"task"}
{"timestamp":"2025-09-01T21:27:17.938323Z","level":"info","event":"     Initializing site 'F'","chan":"stdout","logger":"task"}
{"timestamp":"2025-09-01T21:27:17.938747Z","level":"info","event":"       Electron density: proportional to exp(-r/0.38886)*erfc((r-0)/0.438782) with norm 8","chan":"stdout","logger":"task"}
{"timestamp":"2025-09-01T21:27:17.939453Z","level":"info","event":"       Charge density: gaussian nuclear width 0.374796 with net site charge 1","chan":"stdout","logger":"task"}
{"timestamp":"2025-09-01T21:27:17.939805Z","level":"info","event":"       Hard sphere radius: 2.39995 bohrs","chan":"stdout","logger":"task"}
{"timestamp":"2025-09-01T21:27:17.940084Z","level":"info","event":"       Positions in reference frame:","chan":"stdout","logger":"task"}
{"timestamp":"2025-09-01T21:27:17.940381Z","level":"info","event":"         [ +0.000000 +0.000000 +0.000000 ]","chan":"stdout","logger":"task"}
{"timestamp":"2025-09-01T21:27:17.940672Z","level":"info","event":"     Net charge: 1   dipole magnitude: 0","chan":"stdout","logger":"task"}
{"timestamp":"2025-09-01T21:27:17.940974Z","level":"info","event":"     Initializing gaussian mfKernel with width: 1.59012 Bohr","chan":"stdout","logger":"task"}
{"timestamp":"2025-09-01T21:27:17.941289Z","level":"info","event":"     deltaS corrections:","chan":"stdout","logger":"task"}
{"timestamp":"2025-09-01T21:27:17.941648Z","level":"info","event":"       site 'F': -9.04335","chan":"stdout","logger":"task"}
{"timestamp":"2025-09-01T21:27:17.941957Z","level":"info","event":"","chan":"stdout","logger":"task"}
{"timestamp":"2025-09-01T21:27:17.942305Z","level":"info","event":"Correction to mu due to finite nuclear width = -0.0634344","chan":"stdout","logger":"task"}
{"timestamp":"2025-09-01T21:27:17.942740Z","level":"info","event":"   Cavity determined by nc: 0.00142 and sigma: 0.707107","chan":"stdout","logger":"task"}
{"timestamp":"2025-09-01T21:27:17.943066Z","level":"info","event":"   Nonlocal vdW cavity from gaussian model electron density with norm = 8 and sigma = 0.993594 bohr","chan":"stdout","logger":"task"}
{"timestamp":"2025-09-01T21:27:17.943451Z","level":"info","event":"   Charge asymmetry in cavity with sensitivity pCavity = 36.5 e-bohr/Eh","chan":"stdout","logger":"task"}
{"timestamp":"2025-09-01T21:27:17.943794Z","level":"info","event":"   Electrostatic cavity expanded by eta = 1.46 bohrs","chan":"stdout","logger":"task"}
{"timestamp":"2025-09-01T21:27:17.944139Z","level":"info","event":"   Weighted density cavitation model constrained by Nbulk: 0.0049383 bohr^-3, Pvap: 3.14029 kPa, Rvdw: 2.61727 bohr and sigmaBulk: 4.62e-05 Eh/bohr^2 at T: 298 K.","chan":"stdout","logger":"task"}
{"timestamp":"2025-09-01T21:27:17.944567Z","level":"info","event":"   Weighted density dispersion model using vdW pair potentials with single solvent site with sqrtC6eff: 0.77 SI.","chan":"stdout","logger":"task"}
{"timestamp":"2025-09-01T21:27:17.944871Z","level":"info","event":"","chan":"stdout","logger":"task"}
{"timestamp":"2025-09-01T21:27:17.945575Z","level":"info","event":"","chan":"stdout","logger":"task"}
{"timestamp":"2025-09-01T21:27:17.945863Z","level":"info","event":"---- Citations for features of the code used in this run ----","chan":"stdout","logger":"task"}
{"timestamp":"2025-09-01T21:27:17.946176Z","level":"info","event":"","chan":"stdout","logger":"task"}
{"timestamp":"2025-09-01T21:27:17.946661Z","level":"info","event":"   Software package:","chan":"stdout","logger":"task"}
{"timestamp":"2025-09-01T21:27:17.947000Z","level":"info","event":"      R. Sundararaman, K. Letchworth-Weaver, K.A. Schwarz, D. Gunceler, Y. Ozhabes and T.A. Arias, 'JDFTx: software for joint density-functional theory', SoftwareX 6, 278 (2017)","chan":"stdout","logger":"task"}
{"timestamp":"2025-09-01T21:27:17.947401Z","level":"info","event":"","chan":"stdout","logger":"task"}
{"timestamp":"2025-09-01T21:27:17.947682Z","level":"info","event":"   gga-PBE exchange-correlation functional:","chan":"stdout","logger":"task"}
{"timestamp":"2025-09-01T21:27:17.948197Z","level":"info","event":"      J.P. Perdew, K. Burke and M. Ernzerhof, Phys. Rev. Lett. 77, 3865 (1996)","chan":"stdout","logger":"task"}
{"timestamp":"2025-09-01T21:27:17.948493Z","level":"info","event":"","chan":"stdout","logger":"task"}
{"timestamp":"2025-09-01T21:27:17.949070Z","level":"info","event":"   Pseudopotentials:","chan":"stdout","logger":"task"}
{"timestamp":"2025-09-01T21:27:17.949575Z","level":"info","event":"      KF Garrity, JW Bennett, KM Rabe and D Vanderbilt, Comput. Mater. Sci. 81, 446 (2014)","chan":"stdout","logger":"task"}
{"timestamp":"2025-09-01T21:27:17.950086Z","level":"info","event":"","chan":"stdout","logger":"task"}
{"timestamp":"2025-09-01T21:27:17.950342Z","level":"info","event":"   DFT-D2 dispersion correction:","chan":"stdout","logger":"task"}
{"timestamp":"2025-09-01T21:27:17.950770Z","level":"info","event":"      S. Grimme, J. Comput. Chem. 27, 1787 (2006)","chan":"stdout","logger":"task"}
{"timestamp":"2025-09-01T21:27:17.951007Z","level":"info","event":"","chan":"stdout","logger":"task"}
{"timestamp":"2025-09-01T21:27:17.951214Z","level":"info","event":"   Charge-asymmetric nonlocally-determined local-electric (CANDLE) solvation model:","chan":"stdout","logger":"task"}
{"timestamp":"2025-09-01T21:27:17.951955Z","level":"info","event":"      R. Sundararaman and W.A. Goddard III, J. Chem. Phys. 142, 064107 (2015)","chan":"stdout","logger":"task"}
{"timestamp":"2025-09-01T21:27:17.952293Z","level":"info","event":"","chan":"stdout","logger":"task"}
{"timestamp":"2025-09-01T21:27:17.952516Z","level":"info","event":"   Total energy minimization with Auxiliary Hamiltonian:","chan":"stdout","logger":"task"}
{"timestamp":"2025-09-01T21:27:17.952769Z","level":"info","event":"      C. Freysoldt, S. Boeck, and J. Neugebauer, Phys. Rev. B 79, 241103(R) (2009)","chan":"stdout","logger":"task"}
{"timestamp":"2025-09-01T21:27:17.953020Z","level":"info","event":"","chan":"stdout","logger":"task"}
{"timestamp":"2025-09-01T21:27:17.953253Z","level":"info","event":"This list may not be complete. Please suggest additional citations or","chan":"stdout","logger":"task"}
{"timestamp":"2025-09-01T21:27:17.953529Z","level":"info","event":"report any other bugs at https://github.com/shankar1729/jdftx/issues","chan":"stdout","logger":"task"}
{"timestamp":"2025-09-01T21:27:17.953926Z","level":"info","event":"","chan":"stdout","logger":"task"}
{"timestamp":"2025-09-01T21:27:17.954277Z","level":"info","event":"Initialization completed successfully at t[s]:   2812.09","chan":"stdout","logger":"task"}
{"timestamp":"2025-09-01T21:27:17.954587Z","level":"info","event":"","chan":"stdout","logger":"task"}
{"timestamp":"2025-09-01T21:27:19.777283Z","level":"info","event":"Fluid solver invoked on fresh (random / LCAO) wavefunctions","chan":"stdout","logger":"task"}
{"timestamp":"2025-09-01T21:27:19.777726Z","level":"info","event":"Running a vacuum solve first:","chan":"stdout","logger":"task"}
{"timestamp":"2025-09-01T21:27:19.778016Z","level":"info","event":"","chan":"stdout","logger":"task"}
{"timestamp":"2025-09-01T21:27:19.778246Z","level":"info","event":"-------- Initial electronic minimization -----------","chan":"stdout","logger":"task"}
{"timestamp":"2025-09-01T21:29:03.102481Z","level":"info","event":"\tFillingsUpdate:  mu: -0.026440721  nElectrons: 187.900000","chan":"stdout","logger":"task"}
{"timestamp":"2025-09-01T21:29:03.104188Z","level":"info","event":"ElecMinimize: Iter:   0  F: -793.293837057903602  |grad|_K:  3.994e-03  alpha:  1.000e+00","chan":"stdout","logger":"task"}
{"timestamp":"2025-09-01T21:31:26.402003Z","level":"info","event":"ElecMinimize: \tStep increased F by 1.121637e+00, reducing alpha to 1.159882e-02.","chan":"stdout","logger":"task"}
{"timestamp":"2025-09-01T21:33:12.245812Z","level":"info","event":"\tFillingsUpdate:  mu: -0.074306380  nElectrons: 187.900000","chan":"stdout","logger":"task"}
{"timestamp":"2025-09-01T21:33:12.251130Z","level":"info","event":"\tSubspaceRotationAdjust: set factor to 0.645","chan":"stdout","logger":"task"}
{"timestamp":"2025-09-01T21:33:12.251662Z","level":"info","event":"ElecMinimize: Iter:   1  F: -793.391586622100817  |grad|_K:  3.430e-03  alpha:  1.160e-02  linmin: -8.780e-03  t[s]:   3166.42","chan":"stdout","logger":"task"}
{"timestamp":"2025-09-01T21:33:57.394579Z","level":"info","event":"ElecMinimize: \tPredicted alpha/alphaT>3.000000, increasing alphaT to 3.479645e-02.","chan":"stdout","logger":"task"}
{"timestamp":"2025-09-01T21:36:20.950386Z","level":"info","event":"\tFillingsUpdate:  mu: +0.030937928  nElectrons: 187.900000","chan":"stdout","logger":"task"}
{"timestamp":"2025-09-01T21:36:20.955503Z","level":"info","event":"\tSubspaceRotationAdjust: set factor to 0.395","chan":"stdout","logger":"task"}
{"timestamp":"2025-09-01T21:36:20.956331Z","level":"info","event":"ElecMinimize: Iter:   2  F: -794.165271592288832  |grad|_K:  2.962e-03  alpha:  2.770e-02  linmin:  7.096e-04  t[s]:   3355.13","chan":"stdout","logger":"task"}
{"timestamp":"2025-09-01T21:38:43.458326Z","level":"info","event":"\tFillingsUpdate:  mu: +0.041879683  nElectrons: 187.900000","chan":"stdout","logger":"task"}
{"timestamp":"2025-09-01T21:38:43.463935Z","level":"info","event":"\tSubspaceRotationAdjust: set factor to 0.224","chan":"stdout","logger":"task"}
{"timestamp":"2025-09-01T21:38:43.464886Z","level":"info","event":"ElecMinimize: Iter:   3  F: -794.393811059170389  |grad|_K:  3.114e-03  alpha:  2.426e-02  linmin:  3.839e-05  t[s]:   3497.63","chan":"stdout","logger":"task"}
{"timestamp":"2025-09-01T21:40:54.321726Z","level":"error","event":"Server indicated the task shouldn't be running anymore. Terminating process","detail":{"detail":{"reason":"not_running","message":"TI is no longer in the running state and task should terminate","current_state":"failed"}},"logger":"task"}
{"timestamp":"2025-09-01T21:40:59.401260Z","level":"error","event":"Task killed!","logger":"task"}
{"timestamp":"2025-09-01T21:41:17.847826Z","level":"info","event":"\tFillingsUpdate:  mu: +0.012922038  nElectrons: 187.900000","chan":"stdout","logger":"task"}
